V -t * -v 1.0a5 -a 0
A -t * -n 1 -p 0 -o 0xffffffff -c 31 -a 1
A -t * -h 1 -m 2147483647 -s 0
n -t * -a 0 -s 0 -S UP -v circle -c black -i black
n -t * -a 1 -s 1 -S UP -v circle -c black -i black
l -t * -s 0 -d 1 -S UP -r 100000000 -D 0.14999999999999999 -c black -o right
n -t 0 -s 0 -S DLABEL -l "SRP_sender" -L ""
n -t 0 -s 1 -S DLABEL -l "SRP_receiver" -L ""
+ -t 0.5 -s 0 -d 1 -p tcp -e 5003 -c 0 -i 0 -a 0 -x {0.0 1.0 0 ------- null}
- -t 0.5 -s 0 -d 1 -p tcp -e 5003 -c 0 -i 0 -a 0 -x {0.0 1.0 0 ------- null}
h -t 0.5 -s 0 -d 1 -p tcp -e 5003 -c 0 -i 0 -a 0 -x {0.0 1.0 -1 ------- null}
+ -t 0.5 -s 0 -d 1 -p tcp -e 5043 -c 0 -i 1 -a 0 -x {0.0 1.0 1 ------- null}
+ -t 0.5 -s 0 -d 1 -p tcp -e 5043 -c 0 -i 2 -a 0 -x {0.0 1.0 2 ------- null}
+ -t 0.5 -s 0 -d 1 -p tcp -e 5043 -c 0 -i 3 -a 0 -x {0.0 1.0 3 ------- null}
+ -t 0.5 -s 0 -d 1 -p tcp -e 5043 -c 0 -i 4 -a 0 -x {0.0 1.0 4 ------- null}
+ -t 0.5 -s 0 -d 1 -p tcp -e 5043 -c 0 -i 5 -a 0 -x {0.0 1.0 5 ------- null}
+ -t 0.5 -s 0 -d 1 -p tcp -e 5043 -c 0 -i 6 -a 0 -x {0.0 1.0 6 ------- null}
+ -t 0.5 -s 0 -d 1 -p tcp -e 5043 -c 0 -i 7 -a 0 -x {0.0 1.0 7 ------- null}
+ -t 0.5 -s 0 -d 1 -p tcp -e 5043 -c 0 -i 8 -a 0 -x {0.0 1.0 8 ------- null}
+ -t 0.5 -s 0 -d 1 -p tcp -e 5043 -c 0 -i 9 -a 0 -x {0.0 1.0 9 ------- null}
+ -t 0.5 -s 0 -d 1 -p tcp -e 5043 -c 0 -i 10 -a 0 -x {0.0 1.0 10 ------- null}
+ -t 0.5 -s 0 -d 1 -p tcp -e 5043 -c 0 -i 11 -a 0 -x {0.0 1.0 11 ------- null}
+ -t 0.5 -s 0 -d 1 -p tcp -e 5043 -c 0 -i 12 -a 0 -x {0.0 1.0 12 ------- null}
+ -t 0.5 -s 0 -d 1 -p tcp -e 5043 -c 0 -i 13 -a 0 -x {0.0 1.0 13 ------- null}
+ -t 0.5 -s 0 -d 1 -p tcp -e 5043 -c 0 -i 14 -a 0 -x {0.0 1.0 14 ------- null}
+ -t 0.5 -s 0 -d 1 -p tcp -e 5043 -c 0 -i 15 -a 0 -x {0.0 1.0 15 ------- null}
+ -t 0.5 -s 0 -d 1 -p tcp -e 5043 -c 0 -i 16 -a 0 -x {0.0 1.0 16 ------- null}
+ -t 0.5 -s 0 -d 1 -p tcp -e 5043 -c 0 -i 17 -a 0 -x {0.0 1.0 17 ------- null}
+ -t 0.5 -s 0 -d 1 -p tcp -e 5043 -c 0 -i 18 -a 0 -x {0.0 1.0 18 ------- null}
+ -t 0.5 -s 0 -d 1 -p tcp -e 5043 -c 0 -i 19 -a 0 -x {0.0 1.0 19 ------- null}
+ -t 0.5 -s 0 -d 1 -p tcp -e 5043 -c 0 -i 20 -a 0 -x {0.0 1.0 20 ------- null}
+ -t 0.5 -s 0 -d 1 -p tcp -e 5043 -c 0 -i 21 -a 0 -x {0.0 1.0 21 ------- null}
+ -t 0.5 -s 0 -d 1 -p tcp -e 5043 -c 0 -i 22 -a 0 -x {0.0 1.0 22 ------- null}
+ -t 0.5 -s 0 -d 1 -p tcp -e 5043 -c 0 -i 23 -a 0 -x {0.0 1.0 23 ------- null}
+ -t 0.5 -s 0 -d 1 -p tcp -e 5043 -c 0 -i 24 -a 0 -x {0.0 1.0 24 ------- null}
+ -t 0.5 -s 0 -d 1 -p tcp -e 5043 -c 0 -i 25 -a 0 -x {0.0 1.0 25 ------- null}
+ -t 0.5 -s 0 -d 1 -p tcp -e 5043 -c 0 -i 26 -a 0 -x {0.0 1.0 26 ------- null}
+ -t 0.5 -s 0 -d 1 -p tcp -e 5043 -c 0 -i 27 -a 0 -x {0.0 1.0 27 ------- null}
+ -t 0.5 -s 0 -d 1 -p tcp -e 5043 -c 0 -i 28 -a 0 -x {0.0 1.0 28 ------- null}
+ -t 0.5 -s 0 -d 1 -p tcp -e 5043 -c 0 -i 29 -a 0 -x {0.0 1.0 29 ------- null}
+ -t 0.5 -s 0 -d 1 -p tcp -e 5043 -c 0 -i 30 -a 0 -x {0.0 1.0 30 ------- null}
+ -t 0.5 -s 0 -d 1 -p tcp -e 5043 -c 0 -i 31 -a 0 -x {0.0 1.0 31 ------- null}
+ -t 0.5 -s 0 -d 1 -p tcp -e 5043 -c 0 -i 32 -a 0 -x {0.0 1.0 32 ------- null}
+ -t 0.5 -s 0 -d 1 -p tcp -e 5043 -c 0 -i 33 -a 0 -x {0.0 1.0 33 ------- null}
+ -t 0.5 -s 0 -d 1 -p tcp -e 5043 -c 0 -i 34 -a 0 -x {0.0 1.0 34 ------- null}
+ -t 0.5 -s 0 -d 1 -p tcp -e 5043 -c 0 -i 35 -a 0 -x {0.0 1.0 35 ------- null}
+ -t 0.5 -s 0 -d 1 -p tcp -e 5043 -c 0 -i 36 -a 0 -x {0.0 1.0 36 ------- null}
+ -t 0.5 -s 0 -d 1 -p tcp -e 5043 -c 0 -i 37 -a 0 -x {0.0 1.0 37 ------- null}
+ -t 0.5 -s 0 -d 1 -p tcp -e 5043 -c 0 -i 38 -a 0 -x {0.0 1.0 38 ------- null}
+ -t 0.5 -s 0 -d 1 -p tcp -e 5043 -c 0 -i 39 -a 0 -x {0.0 1.0 39 ------- null}
+ -t 0.5 -s 0 -d 1 -p tcp -e 5043 -c 0 -i 40 -a 0 -x {0.0 1.0 40 ------- null}
+ -t 0.5 -s 0 -d 1 -p tcp -e 5043 -c 0 -i 41 -a 0 -x {0.0 1.0 41 ------- null}
+ -t 0.5 -s 0 -d 1 -p tcp -e 5043 -c 0 -i 42 -a 0 -x {0.0 1.0 42 ------- null}
+ -t 0.5 -s 0 -d 1 -p tcp -e 5043 -c 0 -i 43 -a 0 -x {0.0 1.0 43 ------- null}
+ -t 0.5 -s 0 -d 1 -p tcp -e 5043 -c 0 -i 44 -a 0 -x {0.0 1.0 44 ------- null}
+ -t 0.5 -s 0 -d 1 -p tcp -e 5043 -c 0 -i 45 -a 0 -x {0.0 1.0 45 ------- null}
+ -t 0.5 -s 0 -d 1 -p tcp -e 5043 -c 0 -i 46 -a 0 -x {0.0 1.0 46 ------- null}
+ -t 0.5 -s 0 -d 1 -p tcp -e 5043 -c 0 -i 47 -a 0 -x {0.0 1.0 47 ------- null}
+ -t 0.5 -s 0 -d 1 -p tcp -e 5043 -c 0 -i 48 -a 0 -x {0.0 1.0 48 ------- null}
+ -t 0.5 -s 0 -d 1 -p tcp -e 5043 -c 0 -i 49 -a 0 -x {0.0 1.0 49 ------- null}
+ -t 0.5 -s 0 -d 1 -p tcp -e 5043 -c 0 -i 50 -a 0 -x {0.0 1.0 50 ------- null}
+ -t 0.5 -s 0 -d 1 -p tcp -e 5043 -c 0 -i 51 -a 0 -x {0.0 1.0 51 ------- null}
+ -t 0.5 -s 0 -d 1 -p tcp -e 5043 -c 0 -i 52 -a 0 -x {0.0 1.0 52 ------- null}
+ -t 0.5 -s 0 -d 1 -p tcp -e 5043 -c 0 -i 53 -a 0 -x {0.0 1.0 53 ------- null}
+ -t 0.5 -s 0 -d 1 -p tcp -e 5043 -c 0 -i 54 -a 0 -x {0.0 1.0 54 ------- null}
+ -t 0.5 -s 0 -d 1 -p tcp -e 5043 -c 0 -i 55 -a 0 -x {0.0 1.0 55 ------- null}
+ -t 0.5 -s 0 -d 1 -p tcp -e 5043 -c 0 -i 56 -a 0 -x {0.0 1.0 56 ------- null}
+ -t 0.5 -s 0 -d 1 -p tcp -e 5043 -c 0 -i 57 -a 0 -x {0.0 1.0 57 ------- null}
+ -t 0.5 -s 0 -d 1 -p tcp -e 5043 -c 0 -i 58 -a 0 -x {0.0 1.0 58 ------- null}
+ -t 0.5 -s 0 -d 1 -p tcp -e 5043 -c 0 -i 59 -a 0 -x {0.0 1.0 59 ------- null}
+ -t 0.5 -s 0 -d 1 -p tcp -e 5043 -c 0 -i 60 -a 0 -x {0.0 1.0 60 ------- null}
+ -t 0.5 -s 0 -d 1 -p tcp -e 5043 -c 0 -i 61 -a 0 -x {0.0 1.0 61 ------- null}
+ -t 0.5 -s 0 -d 1 -p tcp -e 5043 -c 0 -i 62 -a 0 -x {0.0 1.0 62 ------- null}
+ -t 0.5 -s 0 -d 1 -p tcp -e 5043 -c 0 -i 63 -a 0 -x {0.0 1.0 63 ------- null}
+ -t 0.5 -s 0 -d 1 -p tcp -e 5043 -c 0 -i 64 -a 0 -x {0.0 1.0 64 ------- null}
+ -t 0.5 -s 0 -d 1 -p tcp -e 5043 -c 0 -i 65 -a 0 -x {0.0 1.0 65 ------- null}
+ -t 0.5 -s 0 -d 1 -p tcp -e 5043 -c 0 -i 66 -a 0 -x {0.0 1.0 66 ------- null}
+ -t 0.5 -s 0 -d 1 -p tcp -e 5043 -c 0 -i 67 -a 0 -x {0.0 1.0 67 ------- null}
+ -t 0.5 -s 0 -d 1 -p tcp -e 5043 -c 0 -i 68 -a 0 -x {0.0 1.0 68 ------- null}
+ -t 0.5 -s 0 -d 1 -p tcp -e 5043 -c 0 -i 69 -a 0 -x {0.0 1.0 69 ------- null}
+ -t 0.5 -s 0 -d 1 -p tcp -e 5043 -c 0 -i 70 -a 0 -x {0.0 1.0 70 ------- null}
+ -t 0.5 -s 0 -d 1 -p tcp -e 5043 -c 0 -i 71 -a 0 -x {0.0 1.0 71 ------- null}
+ -t 0.5 -s 0 -d 1 -p tcp -e 5043 -c 0 -i 72 -a 0 -x {0.0 1.0 72 ------- null}
+ -t 0.5 -s 0 -d 1 -p tcp -e 5043 -c 0 -i 73 -a 0 -x {0.0 1.0 73 ------- null}
+ -t 0.5 -s 0 -d 1 -p tcp -e 5043 -c 0 -i 74 -a 0 -x {0.0 1.0 74 ------- null}
+ -t 0.5 -s 0 -d 1 -p tcp -e 5043 -c 0 -i 75 -a 0 -x {0.0 1.0 75 ------- null}
+ -t 0.5 -s 0 -d 1 -p tcp -e 5043 -c 0 -i 76 -a 0 -x {0.0 1.0 76 ------- null}
+ -t 0.5 -s 0 -d 1 -p tcp -e 5043 -c 0 -i 77 -a 0 -x {0.0 1.0 77 ------- null}
+ -t 0.5 -s 0 -d 1 -p tcp -e 5043 -c 0 -i 78 -a 0 -x {0.0 1.0 78 ------- null}
+ -t 0.5 -s 0 -d 1 -p tcp -e 5043 -c 0 -i 79 -a 0 -x {0.0 1.0 79 ------- null}
+ -t 0.5 -s 0 -d 1 -p tcp -e 5043 -c 0 -i 80 -a 0 -x {0.0 1.0 80 ------- null}
+ -t 0.5 -s 0 -d 1 -p tcp -e 5043 -c 0 -i 81 -a 0 -x {0.0 1.0 81 ------- null}
+ -t 0.5 -s 0 -d 1 -p tcp -e 5043 -c 0 -i 82 -a 0 -x {0.0 1.0 82 ------- null}
+ -t 0.5 -s 0 -d 1 -p tcp -e 5043 -c 0 -i 83 -a 0 -x {0.0 1.0 83 ------- null}
+ -t 0.5 -s 0 -d 1 -p tcp -e 5043 -c 0 -i 84 -a 0 -x {0.0 1.0 84 ------- null}
+ -t 0.5 -s 0 -d 1 -p tcp -e 5043 -c 0 -i 85 -a 0 -x {0.0 1.0 85 ------- null}
+ -t 0.5 -s 0 -d 1 -p tcp -e 5043 -c 0 -i 86 -a 0 -x {0.0 1.0 86 ------- null}
+ -t 0.5 -s 0 -d 1 -p tcp -e 5043 -c 0 -i 87 -a 0 -x {0.0 1.0 87 ------- null}
+ -t 0.5 -s 0 -d 1 -p tcp -e 5043 -c 0 -i 88 -a 0 -x {0.0 1.0 88 ------- null}
+ -t 0.5 -s 0 -d 1 -p tcp -e 5043 -c 0 -i 89 -a 0 -x {0.0 1.0 89 ------- null}
+ -t 0.5 -s 0 -d 1 -p tcp -e 5043 -c 0 -i 90 -a 0 -x {0.0 1.0 90 ------- null}
+ -t 0.5 -s 0 -d 1 -p tcp -e 5043 -c 0 -i 91 -a 0 -x {0.0 1.0 91 ------- null}
+ -t 0.5 -s 0 -d 1 -p tcp -e 5043 -c 0 -i 92 -a 0 -x {0.0 1.0 92 ------- null}
+ -t 0.5 -s 0 -d 1 -p tcp -e 5043 -c 0 -i 93 -a 0 -x {0.0 1.0 93 ------- null}
+ -t 0.5 -s 0 -d 1 -p tcp -e 5043 -c 0 -i 94 -a 0 -x {0.0 1.0 94 ------- null}
+ -t 0.5 -s 0 -d 1 -p tcp -e 5043 -c 0 -i 95 -a 0 -x {0.0 1.0 95 ------- null}
+ -t 0.5 -s 0 -d 1 -p tcp -e 5043 -c 0 -i 96 -a 0 -x {0.0 1.0 96 ------- null}
+ -t 0.5 -s 0 -d 1 -p tcp -e 5043 -c 0 -i 97 -a 0 -x {0.0 1.0 97 ------- null}
+ -t 0.5 -s 0 -d 1 -p tcp -e 5043 -c 0 -i 98 -a 0 -x {0.0 1.0 98 ------- null}
+ -t 0.5 -s 0 -d 1 -p tcp -e 5043 -c 0 -i 99 -a 0 -x {0.0 1.0 99 ------- null}
+ -t 0.5 -s 0 -d 1 -p tcp -e 5043 -c 0 -i 100 -a 0 -x {0.0 1.0 100 ------- null}
+ -t 0.5 -s 0 -d 1 -p tcp -e 5043 -c 0 -i 101 -a 0 -x {0.0 1.0 101 ------- null}
+ -t 0.5 -s 0 -d 1 -p tcp -e 5043 -c 0 -i 102 -a 0 -x {0.0 1.0 102 ------- null}
+ -t 0.5 -s 0 -d 1 -p tcp -e 5043 -c 0 -i 103 -a 0 -x {0.0 1.0 103 ------- null}
+ -t 0.5 -s 0 -d 1 -p tcp -e 5043 -c 0 -i 104 -a 0 -x {0.0 1.0 104 ------- null}
+ -t 0.5 -s 0 -d 1 -p tcp -e 5043 -c 0 -i 105 -a 0 -x {0.0 1.0 105 ------- null}
+ -t 0.5 -s 0 -d 1 -p tcp -e 5043 -c 0 -i 106 -a 0 -x {0.0 1.0 106 ------- null}
+ -t 0.5 -s 0 -d 1 -p tcp -e 5043 -c 0 -i 107 -a 0 -x {0.0 1.0 107 ------- null}
+ -t 0.5 -s 0 -d 1 -p tcp -e 5043 -c 0 -i 108 -a 0 -x {0.0 1.0 108 ------- null}
+ -t 0.5 -s 0 -d 1 -p tcp -e 5043 -c 0 -i 109 -a 0 -x {0.0 1.0 109 ------- null}
+ -t 0.5 -s 0 -d 1 -p tcp -e 5043 -c 0 -i 110 -a 0 -x {0.0 1.0 110 ------- null}
+ -t 0.5 -s 0 -d 1 -p tcp -e 5043 -c 0 -i 111 -a 0 -x {0.0 1.0 111 ------- null}
+ -t 0.5 -s 0 -d 1 -p tcp -e 5043 -c 0 -i 112 -a 0 -x {0.0 1.0 112 ------- null}
+ -t 0.5 -s 0 -d 1 -p tcp -e 5043 -c 0 -i 113 -a 0 -x {0.0 1.0 113 ------- null}
+ -t 0.5 -s 0 -d 1 -p tcp -e 5043 -c 0 -i 114 -a 0 -x {0.0 1.0 114 ------- null}
+ -t 0.5 -s 0 -d 1 -p tcp -e 5043 -c 0 -i 115 -a 0 -x {0.0 1.0 115 ------- null}
+ -t 0.5 -s 0 -d 1 -p tcp -e 5043 -c 0 -i 116 -a 0 -x {0.0 1.0 116 ------- null}
+ -t 0.5 -s 0 -d 1 -p tcp -e 5043 -c 0 -i 117 -a 0 -x {0.0 1.0 117 ------- null}
+ -t 0.5 -s 0 -d 1 -p tcp -e 5043 -c 0 -i 118 -a 0 -x {0.0 1.0 118 ------- null}
+ -t 0.5 -s 0 -d 1 -p tcp -e 5043 -c 0 -i 119 -a 0 -x {0.0 1.0 119 ------- null}
+ -t 0.5 -s 0 -d 1 -p tcp -e 5043 -c 0 -i 120 -a 0 -x {0.0 1.0 120 ------- null}
+ -t 0.5 -s 0 -d 1 -p tcp -e 5043 -c 0 -i 121 -a 0 -x {0.0 1.0 121 ------- null}
+ -t 0.5 -s 0 -d 1 -p tcp -e 5043 -c 0 -i 122 -a 0 -x {0.0 1.0 122 ------- null}
+ -t 0.5 -s 0 -d 1 -p tcp -e 5043 -c 0 -i 123 -a 0 -x {0.0 1.0 123 ------- null}
+ -t 0.5 -s 0 -d 1 -p tcp -e 5043 -c 0 -i 124 -a 0 -x {0.0 1.0 124 ------- null}
+ -t 0.5 -s 0 -d 1 -p tcp -e 5043 -c 0 -i 125 -a 0 -x {0.0 1.0 125 ------- null}
+ -t 0.5 -s 0 -d 1 -p tcp -e 5043 -c 0 -i 126 -a 0 -x {0.0 1.0 126 ------- null}
+ -t 0.5 -s 0 -d 1 -p tcp -e 5043 -c 0 -i 127 -a 0 -x {0.0 1.0 127 ------- null}
+ -t 0.5 -s 0 -d 1 -p tcp -e 5043 -c 0 -i 128 -a 0 -x {0.0 1.0 128 ------- null}
+ -t 0.5 -s 0 -d 1 -p tcp -e 5043 -c 0 -i 129 -a 0 -x {0.0 1.0 129 ------- null}
+ -t 0.5 -s 0 -d 1 -p tcp -e 5043 -c 0 -i 130 -a 0 -x {0.0 1.0 130 ------- null}
+ -t 0.5 -s 0 -d 1 -p tcp -e 5043 -c 0 -i 131 -a 0 -x {0.0 1.0 131 ------- null}
+ -t 0.5 -s 0 -d 1 -p tcp -e 5043 -c 0 -i 132 -a 0 -x {0.0 1.0 132 ------- null}
+ -t 0.5 -s 0 -d 1 -p tcp -e 5043 -c 0 -i 133 -a 0 -x {0.0 1.0 133 ------- null}
+ -t 0.5 -s 0 -d 1 -p tcp -e 5043 -c 0 -i 134 -a 0 -x {0.0 1.0 134 ------- null}
+ -t 0.5 -s 0 -d 1 -p tcp -e 5043 -c 0 -i 135 -a 0 -x {0.0 1.0 135 ------- null}
+ -t 0.5 -s 0 -d 1 -p tcp -e 5043 -c 0 -i 136 -a 0 -x {0.0 1.0 136 ------- null}
+ -t 0.5 -s 0 -d 1 -p tcp -e 5043 -c 0 -i 137 -a 0 -x {0.0 1.0 137 ------- null}
+ -t 0.5 -s 0 -d 1 -p tcp -e 5043 -c 0 -i 138 -a 0 -x {0.0 1.0 138 ------- null}
+ -t 0.5 -s 0 -d 1 -p tcp -e 5043 -c 0 -i 139 -a 0 -x {0.0 1.0 139 ------- null}
+ -t 0.5 -s 0 -d 1 -p tcp -e 5043 -c 0 -i 140 -a 0 -x {0.0 1.0 140 ------- null}
+ -t 0.5 -s 0 -d 1 -p tcp -e 5043 -c 0 -i 141 -a 0 -x {0.0 1.0 141 ------- null}
+ -t 0.5 -s 0 -d 1 -p tcp -e 5043 -c 0 -i 142 -a 0 -x {0.0 1.0 142 ------- null}
+ -t 0.5 -s 0 -d 1 -p tcp -e 5043 -c 0 -i 143 -a 0 -x {0.0 1.0 143 ------- null}
+ -t 0.5 -s 0 -d 1 -p tcp -e 5043 -c 0 -i 144 -a 0 -x {0.0 1.0 144 ------- null}
+ -t 0.5 -s 0 -d 1 -p tcp -e 5043 -c 0 -i 145 -a 0 -x {0.0 1.0 145 ------- null}
+ -t 0.5 -s 0 -d 1 -p tcp -e 5043 -c 0 -i 146 -a 0 -x {0.0 1.0 146 ------- null}
+ -t 0.5 -s 0 -d 1 -p tcp -e 5043 -c 0 -i 147 -a 0 -x {0.0 1.0 147 ------- null}
+ -t 0.5 -s 0 -d 1 -p tcp -e 5043 -c 0 -i 148 -a 0 -x {0.0 1.0 148 ------- null}
+ -t 0.5 -s 0 -d 1 -p tcp -e 5043 -c 0 -i 149 -a 0 -x {0.0 1.0 149 ------- null}
+ -t 0.5 -s 0 -d 1 -p tcp -e 5043 -c 0 -i 150 -a 0 -x {0.0 1.0 150 ------- null}
- -t 0.50040024 -s 0 -d 1 -p tcp -e 5043 -c 0 -i 1 -a 0 -x {0.0 1.0 1 ------- null}
h -t 0.50040024 -s 0 -d 1 -p tcp -e 5043 -c 0 -i 1 -a 0 -x {0.0 1.0 -1 ------- null}
- -t 0.50080368 -s 0 -d 1 -p tcp -e 5043 -c 0 -i 2 -a 0 -x {0.0 1.0 2 ------- null}
h -t 0.50080368 -s 0 -d 1 -p tcp -e 5043 -c 0 -i 2 -a 0 -x {0.0 1.0 -1 ------- null}
- -t 0.50120712 -s 0 -d 1 -p tcp -e 5043 -c 0 -i 3 -a 0 -x {0.0 1.0 3 ------- null}
h -t 0.50120712 -s 0 -d 1 -p tcp -e 5043 -c 0 -i 3 -a 0 -x {0.0 1.0 -1 ------- null}
- -t 0.50161056 -s 0 -d 1 -p tcp -e 5043 -c 0 -i 4 -a 0 -x {0.0 1.0 4 ------- null}
h -t 0.50161056 -s 0 -d 1 -p tcp -e 5043 -c 0 -i 4 -a 0 -x {0.0 1.0 -1 ------- null}
- -t 0.502014 -s 0 -d 1 -p tcp -e 5043 -c 0 -i 5 -a 0 -x {0.0 1.0 5 ------- null}
h -t 0.502014 -s 0 -d 1 -p tcp -e 5043 -c 0 -i 5 -a 0 -x {0.0 1.0 -1 ------- null}
- -t 0.50241744 -s 0 -d 1 -p tcp -e 5043 -c 0 -i 6 -a 0 -x {0.0 1.0 6 ------- null}
h -t 0.50241744 -s 0 -d 1 -p tcp -e 5043 -c 0 -i 6 -a 0 -x {0.0 1.0 -1 ------- null}
- -t 0.50282088 -s 0 -d 1 -p tcp -e 5043 -c 0 -i 7 -a 0 -x {0.0 1.0 7 ------- null}
h -t 0.50282088 -s 0 -d 1 -p tcp -e 5043 -c 0 -i 7 -a 0 -x {0.0 1.0 -1 ------- null}
- -t 0.50322432 -s 0 -d 1 -p tcp -e 5043 -c 0 -i 8 -a 0 -x {0.0 1.0 8 ------- null}
h -t 0.50322432 -s 0 -d 1 -p tcp -e 5043 -c 0 -i 8 -a 0 -x {0.0 1.0 -1 ------- null}
- -t 0.50362776 -s 0 -d 1 -p tcp -e 5043 -c 0 -i 9 -a 0 -x {0.0 1.0 9 ------- null}
h -t 0.50362776 -s 0 -d 1 -p tcp -e 5043 -c 0 -i 9 -a 0 -x {0.0 1.0 -1 ------- null}
- -t 0.5040312 -s 0 -d 1 -p tcp -e 5043 -c 0 -i 10 -a 0 -x {0.0 1.0 10 ------- null}
h -t 0.5040312 -s 0 -d 1 -p tcp -e 5043 -c 0 -i 10 -a 0 -x {0.0 1.0 -1 ------- null}
- -t 0.50443464 -s 0 -d 1 -p tcp -e 5043 -c 0 -i 11 -a 0 -x {0.0 1.0 11 ------- null}
h -t 0.50443464 -s 0 -d 1 -p tcp -e 5043 -c 0 -i 11 -a 0 -x {0.0 1.0 -1 ------- null}
- -t 0.50483808 -s 0 -d 1 -p tcp -e 5043 -c 0 -i 12 -a 0 -x {0.0 1.0 12 ------- null}
h -t 0.50483808 -s 0 -d 1 -p tcp -e 5043 -c 0 -i 12 -a 0 -x {0.0 1.0 -1 ------- null}
- -t 0.50524152 -s 0 -d 1 -p tcp -e 5043 -c 0 -i 13 -a 0 -x {0.0 1.0 13 ------- null}
h -t 0.50524152 -s 0 -d 1 -p tcp -e 5043 -c 0 -i 13 -a 0 -x {0.0 1.0 -1 ------- null}
- -t 0.50564496 -s 0 -d 1 -p tcp -e 5043 -c 0 -i 14 -a 0 -x {0.0 1.0 14 ------- null}
h -t 0.50564496 -s 0 -d 1 -p tcp -e 5043 -c 0 -i 14 -a 0 -x {0.0 1.0 -1 ------- null}
- -t 0.506048400000001 -s 0 -d 1 -p tcp -e 5043 -c 0 -i 15 -a 0 -x {0.0 1.0 15 ------- null}
h -t 0.506048400000001 -s 0 -d 1 -p tcp -e 5043 -c 0 -i 15 -a 0 -x {0.0 1.0 -1 ------- null}
- -t 0.506451840000001 -s 0 -d 1 -p tcp -e 5043 -c 0 -i 16 -a 0 -x {0.0 1.0 16 ------- null}
h -t 0.506451840000001 -s 0 -d 1 -p tcp -e 5043 -c 0 -i 16 -a 0 -x {0.0 1.0 -1 ------- null}
- -t 0.506855280000001 -s 0 -d 1 -p tcp -e 5043 -c 0 -i 17 -a 0 -x {0.0 1.0 17 ------- null}
h -t 0.506855280000001 -s 0 -d 1 -p tcp -e 5043 -c 0 -i 17 -a 0 -x {0.0 1.0 -1 ------- null}
- -t 0.507258720000001 -s 0 -d 1 -p tcp -e 5043 -c 0 -i 18 -a 0 -x {0.0 1.0 18 ------- null}
h -t 0.507258720000001 -s 0 -d 1 -p tcp -e 5043 -c 0 -i 18 -a 0 -x {0.0 1.0 -1 ------- null}
- -t 0.507662160000001 -s 0 -d 1 -p tcp -e 5043 -c 0 -i 19 -a 0 -x {0.0 1.0 19 ------- null}
h -t 0.507662160000001 -s 0 -d 1 -p tcp -e 5043 -c 0 -i 19 -a 0 -x {0.0 1.0 -1 ------- null}
- -t 0.508065600000001 -s 0 -d 1 -p tcp -e 5043 -c 0 -i 20 -a 0 -x {0.0 1.0 20 ------- null}
h -t 0.508065600000001 -s 0 -d 1 -p tcp -e 5043 -c 0 -i 20 -a 0 -x {0.0 1.0 -1 ------- null}
- -t 0.508469040000001 -s 0 -d 1 -p tcp -e 5043 -c 0 -i 21 -a 0 -x {0.0 1.0 21 ------- null}
h -t 0.508469040000001 -s 0 -d 1 -p tcp -e 5043 -c 0 -i 21 -a 0 -x {0.0 1.0 -1 ------- null}
- -t 0.508872480000001 -s 0 -d 1 -p tcp -e 5043 -c 0 -i 22 -a 0 -x {0.0 1.0 22 ------- null}
h -t 0.508872480000001 -s 0 -d 1 -p tcp -e 5043 -c 0 -i 22 -a 0 -x {0.0 1.0 -1 ------- null}
- -t 0.509275920000001 -s 0 -d 1 -p tcp -e 5043 -c 0 -i 23 -a 0 -x {0.0 1.0 23 ------- null}
h -t 0.509275920000001 -s 0 -d 1 -p tcp -e 5043 -c 0 -i 23 -a 0 -x {0.0 1.0 -1 ------- null}
- -t 0.509679360000001 -s 0 -d 1 -p tcp -e 5043 -c 0 -i 24 -a 0 -x {0.0 1.0 24 ------- null}
h -t 0.509679360000001 -s 0 -d 1 -p tcp -e 5043 -c 0 -i 24 -a 0 -x {0.0 1.0 -1 ------- null}
- -t 0.510082800000001 -s 0 -d 1 -p tcp -e 5043 -c 0 -i 25 -a 0 -x {0.0 1.0 25 ------- null}
h -t 0.510082800000001 -s 0 -d 1 -p tcp -e 5043 -c 0 -i 25 -a 0 -x {0.0 1.0 -1 ------- null}
- -t 0.510486240000001 -s 0 -d 1 -p tcp -e 5043 -c 0 -i 26 -a 0 -x {0.0 1.0 26 ------- null}
h -t 0.510486240000001 -s 0 -d 1 -p tcp -e 5043 -c 0 -i 26 -a 0 -x {0.0 1.0 -1 ------- null}
- -t 0.510889680000001 -s 0 -d 1 -p tcp -e 5043 -c 0 -i 27 -a 0 -x {0.0 1.0 27 ------- null}
h -t 0.510889680000001 -s 0 -d 1 -p tcp -e 5043 -c 0 -i 27 -a 0 -x {0.0 1.0 -1 ------- null}
- -t 0.511293120000001 -s 0 -d 1 -p tcp -e 5043 -c 0 -i 28 -a 0 -x {0.0 1.0 28 ------- null}
h -t 0.511293120000001 -s 0 -d 1 -p tcp -e 5043 -c 0 -i 28 -a 0 -x {0.0 1.0 -1 ------- null}
- -t 0.511696560000001 -s 0 -d 1 -p tcp -e 5043 -c 0 -i 29 -a 0 -x {0.0 1.0 29 ------- null}
h -t 0.511696560000001 -s 0 -d 1 -p tcp -e 5043 -c 0 -i 29 -a 0 -x {0.0 1.0 -1 ------- null}
- -t 0.512100000000001 -s 0 -d 1 -p tcp -e 5043 -c 0 -i 30 -a 0 -x {0.0 1.0 30 ------- null}
h -t 0.512100000000001 -s 0 -d 1 -p tcp -e 5043 -c 0 -i 30 -a 0 -x {0.0 1.0 -1 ------- null}
- -t 0.512503440000001 -s 0 -d 1 -p tcp -e 5043 -c 0 -i 31 -a 0 -x {0.0 1.0 31 ------- null}
h -t 0.512503440000001 -s 0 -d 1 -p tcp -e 5043 -c 0 -i 31 -a 0 -x {0.0 1.0 -1 ------- null}
- -t 0.512906880000001 -s 0 -d 1 -p tcp -e 5043 -c 0 -i 32 -a 0 -x {0.0 1.0 32 ------- null}
h -t 0.512906880000001 -s 0 -d 1 -p tcp -e 5043 -c 0 -i 32 -a 0 -x {0.0 1.0 -1 ------- null}
- -t 0.513310320000001 -s 0 -d 1 -p tcp -e 5043 -c 0 -i 33 -a 0 -x {0.0 1.0 33 ------- null}
h -t 0.513310320000001 -s 0 -d 1 -p tcp -e 5043 -c 0 -i 33 -a 0 -x {0.0 1.0 -1 ------- null}
- -t 0.513713760000001 -s 0 -d 1 -p tcp -e 5043 -c 0 -i 34 -a 0 -x {0.0 1.0 34 ------- null}
h -t 0.513713760000001 -s 0 -d 1 -p tcp -e 5043 -c 0 -i 34 -a 0 -x {0.0 1.0 -1 ------- null}
- -t 0.514117200000001 -s 0 -d 1 -p tcp -e 5043 -c 0 -i 35 -a 0 -x {0.0 1.0 35 ------- null}
h -t 0.514117200000001 -s 0 -d 1 -p tcp -e 5043 -c 0 -i 35 -a 0 -x {0.0 1.0 -1 ------- null}
- -t 0.514520640000001 -s 0 -d 1 -p tcp -e 5043 -c 0 -i 36 -a 0 -x {0.0 1.0 36 ------- null}
h -t 0.514520640000001 -s 0 -d 1 -p tcp -e 5043 -c 0 -i 36 -a 0 -x {0.0 1.0 -1 ------- null}
- -t 0.514924080000001 -s 0 -d 1 -p tcp -e 5043 -c 0 -i 37 -a 0 -x {0.0 1.0 37 ------- null}
h -t 0.514924080000001 -s 0 -d 1 -p tcp -e 5043 -c 0 -i 37 -a 0 -x {0.0 1.0 -1 ------- null}
- -t 0.515327520000001 -s 0 -d 1 -p tcp -e 5043 -c 0 -i 38 -a 0 -x {0.0 1.0 38 ------- null}
h -t 0.515327520000001 -s 0 -d 1 -p tcp -e 5043 -c 0 -i 38 -a 0 -x {0.0 1.0 -1 ------- null}
- -t 0.515730960000001 -s 0 -d 1 -p tcp -e 5043 -c 0 -i 39 -a 0 -x {0.0 1.0 39 ------- null}
h -t 0.515730960000001 -s 0 -d 1 -p tcp -e 5043 -c 0 -i 39 -a 0 -x {0.0 1.0 -1 ------- null}
- -t 0.516134400000001 -s 0 -d 1 -p tcp -e 5043 -c 0 -i 40 -a 0 -x {0.0 1.0 40 ------- null}
h -t 0.516134400000001 -s 0 -d 1 -p tcp -e 5043 -c 0 -i 40 -a 0 -x {0.0 1.0 -1 ------- null}
- -t 0.516537840000001 -s 0 -d 1 -p tcp -e 5043 -c 0 -i 41 -a 0 -x {0.0 1.0 41 ------- null}
h -t 0.516537840000001 -s 0 -d 1 -p tcp -e 5043 -c 0 -i 41 -a 0 -x {0.0 1.0 -1 ------- null}
- -t 0.516941280000001 -s 0 -d 1 -p tcp -e 5043 -c 0 -i 42 -a 0 -x {0.0 1.0 42 ------- null}
h -t 0.516941280000001 -s 0 -d 1 -p tcp -e 5043 -c 0 -i 42 -a 0 -x {0.0 1.0 -1 ------- null}
- -t 0.517344720000001 -s 0 -d 1 -p tcp -e 5043 -c 0 -i 43 -a 0 -x {0.0 1.0 43 ------- null}
h -t 0.517344720000001 -s 0 -d 1 -p tcp -e 5043 -c 0 -i 43 -a 0 -x {0.0 1.0 -1 ------- null}
- -t 0.517748160000001 -s 0 -d 1 -p tcp -e 5043 -c 0 -i 44 -a 0 -x {0.0 1.0 44 ------- null}
h -t 0.517748160000001 -s 0 -d 1 -p tcp -e 5043 -c 0 -i 44 -a 0 -x {0.0 1.0 -1 ------- null}
- -t 0.518151600000001 -s 0 -d 1 -p tcp -e 5043 -c 0 -i 45 -a 0 -x {0.0 1.0 45 ------- null}
h -t 0.518151600000001 -s 0 -d 1 -p tcp -e 5043 -c 0 -i 45 -a 0 -x {0.0 1.0 -1 ------- null}
- -t 0.518555040000002 -s 0 -d 1 -p tcp -e 5043 -c 0 -i 46 -a 0 -x {0.0 1.0 46 ------- null}
h -t 0.518555040000002 -s 0 -d 1 -p tcp -e 5043 -c 0 -i 46 -a 0 -x {0.0 1.0 -1 ------- null}
- -t 0.518958480000002 -s 0 -d 1 -p tcp -e 5043 -c 0 -i 47 -a 0 -x {0.0 1.0 47 ------- null}
h -t 0.518958480000002 -s 0 -d 1 -p tcp -e 5043 -c 0 -i 47 -a 0 -x {0.0 1.0 -1 ------- null}
- -t 0.519361920000002 -s 0 -d 1 -p tcp -e 5043 -c 0 -i 48 -a 0 -x {0.0 1.0 48 ------- null}
h -t 0.519361920000002 -s 0 -d 1 -p tcp -e 5043 -c 0 -i 48 -a 0 -x {0.0 1.0 -1 ------- null}
- -t 0.519765360000002 -s 0 -d 1 -p tcp -e 5043 -c 0 -i 49 -a 0 -x {0.0 1.0 49 ------- null}
h -t 0.519765360000002 -s 0 -d 1 -p tcp -e 5043 -c 0 -i 49 -a 0 -x {0.0 1.0 -1 ------- null}
- -t 0.520168800000002 -s 0 -d 1 -p tcp -e 5043 -c 0 -i 50 -a 0 -x {0.0 1.0 50 ------- null}
h -t 0.520168800000002 -s 0 -d 1 -p tcp -e 5043 -c 0 -i 50 -a 0 -x {0.0 1.0 -1 ------- null}
- -t 0.520572240000002 -s 0 -d 1 -p tcp -e 5043 -c 0 -i 51 -a 0 -x {0.0 1.0 51 ------- null}
h -t 0.520572240000002 -s 0 -d 1 -p tcp -e 5043 -c 0 -i 51 -a 0 -x {0.0 1.0 -1 ------- null}
- -t 0.520975680000002 -s 0 -d 1 -p tcp -e 5043 -c 0 -i 52 -a 0 -x {0.0 1.0 52 ------- null}
h -t 0.520975680000002 -s 0 -d 1 -p tcp -e 5043 -c 0 -i 52 -a 0 -x {0.0 1.0 -1 ------- null}
- -t 0.521379120000002 -s 0 -d 1 -p tcp -e 5043 -c 0 -i 53 -a 0 -x {0.0 1.0 53 ------- null}
h -t 0.521379120000002 -s 0 -d 1 -p tcp -e 5043 -c 0 -i 53 -a 0 -x {0.0 1.0 -1 ------- null}
- -t 0.521782560000002 -s 0 -d 1 -p tcp -e 5043 -c 0 -i 54 -a 0 -x {0.0 1.0 54 ------- null}
h -t 0.521782560000002 -s 0 -d 1 -p tcp -e 5043 -c 0 -i 54 -a 0 -x {0.0 1.0 -1 ------- null}
- -t 0.522186000000002 -s 0 -d 1 -p tcp -e 5043 -c 0 -i 55 -a 0 -x {0.0 1.0 55 ------- null}
h -t 0.522186000000002 -s 0 -d 1 -p tcp -e 5043 -c 0 -i 55 -a 0 -x {0.0 1.0 -1 ------- null}
- -t 0.522589440000002 -s 0 -d 1 -p tcp -e 5043 -c 0 -i 56 -a 0 -x {0.0 1.0 56 ------- null}
h -t 0.522589440000002 -s 0 -d 1 -p tcp -e 5043 -c 0 -i 56 -a 0 -x {0.0 1.0 -1 ------- null}
- -t 0.522992880000002 -s 0 -d 1 -p tcp -e 5043 -c 0 -i 57 -a 0 -x {0.0 1.0 57 ------- null}
h -t 0.522992880000002 -s 0 -d 1 -p tcp -e 5043 -c 0 -i 57 -a 0 -x {0.0 1.0 -1 ------- null}
- -t 0.523396320000002 -s 0 -d 1 -p tcp -e 5043 -c 0 -i 58 -a 0 -x {0.0 1.0 58 ------- null}
h -t 0.523396320000002 -s 0 -d 1 -p tcp -e 5043 -c 0 -i 58 -a 0 -x {0.0 1.0 -1 ------- null}
- -t 0.523799760000002 -s 0 -d 1 -p tcp -e 5043 -c 0 -i 59 -a 0 -x {0.0 1.0 59 ------- null}
h -t 0.523799760000002 -s 0 -d 1 -p tcp -e 5043 -c 0 -i 59 -a 0 -x {0.0 1.0 -1 ------- null}
- -t 0.524203200000002 -s 0 -d 1 -p tcp -e 5043 -c 0 -i 60 -a 0 -x {0.0 1.0 60 ------- null}
h -t 0.524203200000002 -s 0 -d 1 -p tcp -e 5043 -c 0 -i 60 -a 0 -x {0.0 1.0 -1 ------- null}
- -t 0.524606640000002 -s 0 -d 1 -p tcp -e 5043 -c 0 -i 61 -a 0 -x {0.0 1.0 61 ------- null}
h -t 0.524606640000002 -s 0 -d 1 -p tcp -e 5043 -c 0 -i 61 -a 0 -x {0.0 1.0 -1 ------- null}
- -t 0.525010080000002 -s 0 -d 1 -p tcp -e 5043 -c 0 -i 62 -a 0 -x {0.0 1.0 62 ------- null}
h -t 0.525010080000002 -s 0 -d 1 -p tcp -e 5043 -c 0 -i 62 -a 0 -x {0.0 1.0 -1 ------- null}
- -t 0.525413520000002 -s 0 -d 1 -p tcp -e 5043 -c 0 -i 63 -a 0 -x {0.0 1.0 63 ------- null}
h -t 0.525413520000002 -s 0 -d 1 -p tcp -e 5043 -c 0 -i 63 -a 0 -x {0.0 1.0 -1 ------- null}
- -t 0.525816960000002 -s 0 -d 1 -p tcp -e 5043 -c 0 -i 64 -a 0 -x {0.0 1.0 64 ------- null}
h -t 0.525816960000002 -s 0 -d 1 -p tcp -e 5043 -c 0 -i 64 -a 0 -x {0.0 1.0 -1 ------- null}
- -t 0.526220400000002 -s 0 -d 1 -p tcp -e 5043 -c 0 -i 65 -a 0 -x {0.0 1.0 65 ------- null}
h -t 0.526220400000002 -s 0 -d 1 -p tcp -e 5043 -c 0 -i 65 -a 0 -x {0.0 1.0 -1 ------- null}
- -t 0.526623840000002 -s 0 -d 1 -p tcp -e 5043 -c 0 -i 66 -a 0 -x {0.0 1.0 66 ------- null}
h -t 0.526623840000002 -s 0 -d 1 -p tcp -e 5043 -c 0 -i 66 -a 0 -x {0.0 1.0 -1 ------- null}
- -t 0.527027280000002 -s 0 -d 1 -p tcp -e 5043 -c 0 -i 67 -a 0 -x {0.0 1.0 67 ------- null}
h -t 0.527027280000002 -s 0 -d 1 -p tcp -e 5043 -c 0 -i 67 -a 0 -x {0.0 1.0 -1 ------- null}
- -t 0.527430720000002 -s 0 -d 1 -p tcp -e 5043 -c 0 -i 68 -a 0 -x {0.0 1.0 68 ------- null}
h -t 0.527430720000002 -s 0 -d 1 -p tcp -e 5043 -c 0 -i 68 -a 0 -x {0.0 1.0 -1 ------- null}
- -t 0.527834160000002 -s 0 -d 1 -p tcp -e 5043 -c 0 -i 69 -a 0 -x {0.0 1.0 69 ------- null}
h -t 0.527834160000002 -s 0 -d 1 -p tcp -e 5043 -c 0 -i 69 -a 0 -x {0.0 1.0 -1 ------- null}
- -t 0.528237600000002 -s 0 -d 1 -p tcp -e 5043 -c 0 -i 70 -a 0 -x {0.0 1.0 70 ------- null}
h -t 0.528237600000002 -s 0 -d 1 -p tcp -e 5043 -c 0 -i 70 -a 0 -x {0.0 1.0 -1 ------- null}
- -t 0.528641040000002 -s 0 -d 1 -p tcp -e 5043 -c 0 -i 71 -a 0 -x {0.0 1.0 71 ------- null}
h -t 0.528641040000002 -s 0 -d 1 -p tcp -e 5043 -c 0 -i 71 -a 0 -x {0.0 1.0 -1 ------- null}
- -t 0.529044480000002 -s 0 -d 1 -p tcp -e 5043 -c 0 -i 72 -a 0 -x {0.0 1.0 72 ------- null}
h -t 0.529044480000002 -s 0 -d 1 -p tcp -e 5043 -c 0 -i 72 -a 0 -x {0.0 1.0 -1 ------- null}
- -t 0.529447920000002 -s 0 -d 1 -p tcp -e 5043 -c 0 -i 73 -a 0 -x {0.0 1.0 73 ------- null}
h -t 0.529447920000002 -s 0 -d 1 -p tcp -e 5043 -c 0 -i 73 -a 0 -x {0.0 1.0 -1 ------- null}
- -t 0.529851360000002 -s 0 -d 1 -p tcp -e 5043 -c 0 -i 74 -a 0 -x {0.0 1.0 74 ------- null}
h -t 0.529851360000002 -s 0 -d 1 -p tcp -e 5043 -c 0 -i 74 -a 0 -x {0.0 1.0 -1 ------- null}
- -t 0.530254800000002 -s 0 -d 1 -p tcp -e 5043 -c 0 -i 75 -a 0 -x {0.0 1.0 75 ------- null}
h -t 0.530254800000002 -s 0 -d 1 -p tcp -e 5043 -c 0 -i 75 -a 0 -x {0.0 1.0 -1 ------- null}
- -t 0.530658240000003 -s 0 -d 1 -p tcp -e 5043 -c 0 -i 76 -a 0 -x {0.0 1.0 76 ------- null}
h -t 0.530658240000003 -s 0 -d 1 -p tcp -e 5043 -c 0 -i 76 -a 0 -x {0.0 1.0 -1 ------- null}
- -t 0.531061680000003 -s 0 -d 1 -p tcp -e 5043 -c 0 -i 77 -a 0 -x {0.0 1.0 77 ------- null}
h -t 0.531061680000003 -s 0 -d 1 -p tcp -e 5043 -c 0 -i 77 -a 0 -x {0.0 1.0 -1 ------- null}
- -t 0.531465120000003 -s 0 -d 1 -p tcp -e 5043 -c 0 -i 78 -a 0 -x {0.0 1.0 78 ------- null}
h -t 0.531465120000003 -s 0 -d 1 -p tcp -e 5043 -c 0 -i 78 -a 0 -x {0.0 1.0 -1 ------- null}
- -t 0.531868560000003 -s 0 -d 1 -p tcp -e 5043 -c 0 -i 79 -a 0 -x {0.0 1.0 79 ------- null}
h -t 0.531868560000003 -s 0 -d 1 -p tcp -e 5043 -c 0 -i 79 -a 0 -x {0.0 1.0 -1 ------- null}
- -t 0.532272000000003 -s 0 -d 1 -p tcp -e 5043 -c 0 -i 80 -a 0 -x {0.0 1.0 80 ------- null}
h -t 0.532272000000003 -s 0 -d 1 -p tcp -e 5043 -c 0 -i 80 -a 0 -x {0.0 1.0 -1 ------- null}
- -t 0.532675440000003 -s 0 -d 1 -p tcp -e 5043 -c 0 -i 81 -a 0 -x {0.0 1.0 81 ------- null}
h -t 0.532675440000003 -s 0 -d 1 -p tcp -e 5043 -c 0 -i 81 -a 0 -x {0.0 1.0 -1 ------- null}
- -t 0.533078880000003 -s 0 -d 1 -p tcp -e 5043 -c 0 -i 82 -a 0 -x {0.0 1.0 82 ------- null}
h -t 0.533078880000003 -s 0 -d 1 -p tcp -e 5043 -c 0 -i 82 -a 0 -x {0.0 1.0 -1 ------- null}
- -t 0.533482320000003 -s 0 -d 1 -p tcp -e 5043 -c 0 -i 83 -a 0 -x {0.0 1.0 83 ------- null}
h -t 0.533482320000003 -s 0 -d 1 -p tcp -e 5043 -c 0 -i 83 -a 0 -x {0.0 1.0 -1 ------- null}
- -t 0.533885760000003 -s 0 -d 1 -p tcp -e 5043 -c 0 -i 84 -a 0 -x {0.0 1.0 84 ------- null}
h -t 0.533885760000003 -s 0 -d 1 -p tcp -e 5043 -c 0 -i 84 -a 0 -x {0.0 1.0 -1 ------- null}
- -t 0.534289200000003 -s 0 -d 1 -p tcp -e 5043 -c 0 -i 85 -a 0 -x {0.0 1.0 85 ------- null}
h -t 0.534289200000003 -s 0 -d 1 -p tcp -e 5043 -c 0 -i 85 -a 0 -x {0.0 1.0 -1 ------- null}
- -t 0.534692640000003 -s 0 -d 1 -p tcp -e 5043 -c 0 -i 86 -a 0 -x {0.0 1.0 86 ------- null}
h -t 0.534692640000003 -s 0 -d 1 -p tcp -e 5043 -c 0 -i 86 -a 0 -x {0.0 1.0 -1 ------- null}
- -t 0.535096080000003 -s 0 -d 1 -p tcp -e 5043 -c 0 -i 87 -a 0 -x {0.0 1.0 87 ------- null}
h -t 0.535096080000003 -s 0 -d 1 -p tcp -e 5043 -c 0 -i 87 -a 0 -x {0.0 1.0 -1 ------- null}
- -t 0.535499520000003 -s 0 -d 1 -p tcp -e 5043 -c 0 -i 88 -a 0 -x {0.0 1.0 88 ------- null}
h -t 0.535499520000003 -s 0 -d 1 -p tcp -e 5043 -c 0 -i 88 -a 0 -x {0.0 1.0 -1 ------- null}
- -t 0.535902960000003 -s 0 -d 1 -p tcp -e 5043 -c 0 -i 89 -a 0 -x {0.0 1.0 89 ------- null}
h -t 0.535902960000003 -s 0 -d 1 -p tcp -e 5043 -c 0 -i 89 -a 0 -x {0.0 1.0 -1 ------- null}
- -t 0.536306400000003 -s 0 -d 1 -p tcp -e 5043 -c 0 -i 90 -a 0 -x {0.0 1.0 90 ------- null}
h -t 0.536306400000003 -s 0 -d 1 -p tcp -e 5043 -c 0 -i 90 -a 0 -x {0.0 1.0 -1 ------- null}
- -t 0.536709840000003 -s 0 -d 1 -p tcp -e 5043 -c 0 -i 91 -a 0 -x {0.0 1.0 91 ------- null}
h -t 0.536709840000003 -s 0 -d 1 -p tcp -e 5043 -c 0 -i 91 -a 0 -x {0.0 1.0 -1 ------- null}
- -t 0.537113280000003 -s 0 -d 1 -p tcp -e 5043 -c 0 -i 92 -a 0 -x {0.0 1.0 92 ------- null}
h -t 0.537113280000003 -s 0 -d 1 -p tcp -e 5043 -c 0 -i 92 -a 0 -x {0.0 1.0 -1 ------- null}
- -t 0.537516720000003 -s 0 -d 1 -p tcp -e 5043 -c 0 -i 93 -a 0 -x {0.0 1.0 93 ------- null}
h -t 0.537516720000003 -s 0 -d 1 -p tcp -e 5043 -c 0 -i 93 -a 0 -x {0.0 1.0 -1 ------- null}