V -t * -v 1.0a5 -a 0
A -t * -n 1 -p 0 -o 0xffffffff -c 31 -a 1
A -t * -h 1 -m 2147483647 -s 0
c -t * -i 1 -n blue
c -t * -i 2 -n red
n -t * -a 0 -s 0 -S UP -v circle -c black -i black
n -t * -a 1 -s 1 -S UP -v circle -c black -i black
n -t * -a 2 -s 2 -S UP -v circle -c black -i black
n -t * -a 3 -s 3 -S UP -v circle -c black -i black
l -t * -s 0 -d 1 -S UP -r 2000000 -D 0.01 -c black -o 
l -t * -s 1 -d 2 -S UP -r 2000000 -D 0.01 -c black -o 
l -t * -s 1 -d 3 -S UP -r 3200000 -D 0.01 -c black -o 
l -t * -s 2 -d 3 -S UP -r 2000000 -D 0.01 -c black -o 
+ -t 0.000169788487334637 -s 0 -d 1 -p rtProtoDV -e 4 -c 0 -i 0 -a 0 -x {0.2 1.2 -1 ------- null}
- -t 0.000169788487334637 -s 0 -d 1 -p rtProtoDV -e 4 -c 0 -i 0 -a 0 -x {0.2 1.2 -1 ------- null}
h -t 0.000169788487334637 -s 0 -d 1 -p rtProtoDV -e 4 -c 0 -i 0 -a 0 -x {0.2 1.2 -1 ------- null}
+ -t 0.00710233021858257 -s 2 -d 1 -p rtProtoDV -e 4 -c 0 -i 1 -a 0 -x {2.2 1.2 -1 ------- null}
- -t 0.00710233021858257 -s 2 -d 1 -p rtProtoDV -e 4 -c 0 -i 1 -a 0 -x {2.2 1.2 -1 ------- null}
h -t 0.00710233021858257 -s 2 -d 1 -p rtProtoDV -e 4 -c 0 -i 1 -a 0 -x {2.2 1.2 -1 ------- null}
+ -t 0.00710233021858257 -s 2 -d 3 -p rtProtoDV -e 4 -c 0 -i 2 -a 0 -x {2.2 3.2 -1 ------- null}
- -t 0.00710233021858257 -s 2 -d 3 -p rtProtoDV -e 4 -c 0 -i 2 -a 0 -x {2.2 3.2 -1 ------- null}
h -t 0.00710233021858257 -s 2 -d 3 -p rtProtoDV -e 4 -c 0 -i 2 -a 0 -x {2.2 3.2 -1 ------- null}
r -t 0.0101857884873346 -s 0 -d 1 -p rtProtoDV -e 4 -c 0 -i 0 -a 0 -x {0.2 1.2 -1 ------- null}
+ -t 0.0101857884873346 -s 1 -d 0 -p rtProtoDV -e 4 -c 0 -i 3 -a 0 -x {1.2 0.2 -1 ------- null}
- -t 0.0101857884873346 -s 1 -d 0 -p rtProtoDV -e 4 -c 0 -i 3 -a 0 -x {1.2 0.2 -1 ------- null}
h -t 0.0101857884873346 -s 1 -d 0 -p rtProtoDV -e 4 -c 0 -i 3 -a 0 -x {1.2 0.2 -1 ------- null}
+ -t 0.0101857884873346 -s 1 -d 2 -p rtProtoDV -e 4 -c 0 -i 4 -a 0 -x {1.2 2.2 -1 ------- null}
- -t 0.0101857884873346 -s 1 -d 2 -p rtProtoDV -e 4 -c 0 -i 4 -a 0 -x {1.2 2.2 -1 ------- null}
h -t 0.0101857884873346 -s 1 -d 2 -p rtProtoDV -e 4 -c 0 -i 4 -a 0 -x {1.2 2.2 -1 ------- null}
+ -t 0.0101857884873346 -s 1 -d 3 -p rtProtoDV -e 4 -c 0 -i 5 -a 0 -x {1.2 3.2 -1 ------- null}
- -t 0.0101857884873346 -s 1 -d 3 -p rtProtoDV -e 4 -c 0 -i 5 -a 0 -x {1.2 3.2 -1 ------- null}
h -t 0.0101857884873346 -s 1 -d 3 -p rtProtoDV -e 4 -c 0 -i 5 -a 0 -x {1.2 3.2 -1 ------- null}
r -t 0.0171183302185826 -s 2 -d 1 -p rtProtoDV -e 4 -c 0 -i 1 -a 0 -x {2.2 1.2 -1 ------- null}
+ -t 0.0171183302185826 -s 1 -d 0 -p rtProtoDV -e 4 -c 0 -i 6 -a 0 -x {1.2 0.2 -1 ------- null}
- -t 0.0171183302185826 -s 1 -d 0 -p rtProtoDV -e 4 -c 0 -i 6 -a 0 -x {1.2 0.2 -1 ------- null}
h -t 0.0171183302185826 -s 1 -d 0 -p rtProtoDV -e 4 -c 0 -i 6 -a 0 -x {1.2 0.2 -1 ------- null}
+ -t 0.0171183302185826 -s 1 -d 2 -p rtProtoDV -e 4 -c 0 -i 7 -a 0 -x {1.2 2.2 -1 ------- null}
- -t 0.0171183302185826 -s 1 -d 2 -p rtProtoDV -e 4 -c 0 -i 7 -a 0 -x {1.2 2.2 -1 ------- null}
h -t 0.0171183302185826 -s 1 -d 2 -p rtProtoDV -e 4 -c 0 -i 7 -a 0 -x {1.2 2.2 -1 ------- null}
+ -t 0.0171183302185826 -s 1 -d 2 -p rtProtoDV -e 4 -c 0 -i 8 -a 0 -x {1.2 3.2 -1 ------- null}
r -t 0.0171183302185826 -s 2 -d 3 -p rtProtoDV -e 4 -c 0 -i 2 -a 0 -x {2.2 3.2 -1 ------- null}
+ -t 0.0171183302185826 -s 3 -d 2 -p rtProtoDV -e 4 -c 0 -i 9 -a 0 -x {3.2 1.2 -1 ------- null}
- -t 0.0171183302185826 -s 3 -d 2 -p rtProtoDV -e 4 -c 0 -i 9 -a 0 -x {3.2 1.2 -1 ------- null}
h -t 0.0171183302185826 -s 3 -d 2 -p rtProtoDV -e 4 -c 0 -i 9 -a 0 -x {3.2 1.2 -1 ------- null}
+ -t 0.0171183302185826 -s 3 -d 2 -p rtProtoDV -e 4 -c 0 -i 10 -a 0 -x {3.2 2.2 -1 ------- null}
- -t 0.0171343302185826 -s 1 -d 2 -p rtProtoDV -e 4 -c 0 -i 8 -a 0 -x {1.2 3.2 -1 ------- null}
h -t 0.0171343302185826 -s 1 -d 2 -p rtProtoDV -e 4 -c 0 -i 8 -a 0 -x {1.2 3.2 -1 ------- null}
- -t 0.0171343302185826 -s 3 -d 2 -p rtProtoDV -e 4 -c 0 -i 10 -a 0 -x {3.2 2.2 -1 ------- null}
h -t 0.0171343302185826 -s 3 -d 2 -p rtProtoDV -e 4 -c 0 -i 10 -a 0 -x {3.2 2.2 -1 ------- null}
r -t 0.0201957884873346 -s 1 -d 3 -p rtProtoDV -e 4 -c 0 -i 5 -a 0 -x {1.2 3.2 -1 ------- null}
+ -t 0.0201957884873346 -s 3 -d 1 -p rtProtoDV -e 4 -c 0 -i 11 -a 0 -x {3.2 1.2 -1 ------- null}
- -t 0.0201957884873346 -s 3 -d 1 -p rtProtoDV -e 4 -c 0 -i 11 -a 0 -x {3.2 1.2 -1 ------- null}
h -t 0.0201957884873346 -s 3 -d 1 -p rtProtoDV -e 4 -c 0 -i 11 -a 0 -x {3.2 1.2 -1 ------- null}
+ -t 0.0201957884873346 -s 3 -d 2 -p rtProtoDV -e 4 -c 0 -i 12 -a 0 -x {3.2 2.2 -1 ------- null}
- -t 0.0201957884873346 -s 3 -d 2 -p rtProtoDV -e 4 -c 0 -i 12 -a 0 -x {3.2 2.2 -1 ------- null}
h -t 0.0201957884873346 -s 3 -d 2 -p rtProtoDV -e 4 -c 0 -i 12 -a 0 -x {3.2 2.2 -1 ------- null}
r -t 0.0202017884873346 -s 1 -d 0 -p rtProtoDV -e 4 -c 0 -i 3 -a 0 -x {1.2 0.2 -1 ------- null}
+ -t 0.0202017884873346 -s 0 -d 1 -p rtProtoDV -e 4 -c 0 -i 13 -a 0 -x {0.2 1.2 -1 ------- null}
- -t 0.0202017884873346 -s 0 -d 1 -p rtProtoDV -e 4 -c 0 -i 13 -a 0 -x {0.2 1.2 -1 ------- null}
h -t 0.0202017884873346 -s 0 -d 1 -p rtProtoDV -e 4 -c 0 -i 13 -a 0 -x {0.2 1.2 -1 ------- null}
r -t 0.0202017884873346 -s 1 -d 2 -p rtProtoDV -e 4 -c 0 -i 4 -a 0 -x {1.2 2.2 -1 ------- null}
+ -t 0.0202017884873346 -s 2 -d 1 -p rtProtoDV -e 4 -c 0 -i 14 -a 0 -x {2.2 1.2 -1 ------- null}
- -t 0.0202017884873346 -s 2 -d 1 -p rtProtoDV -e 4 -c 0 -i 14 -a 0 -x {2.2 1.2 -1 ------- null}
h -t 0.0202017884873346 -s 2 -d 1 -p rtProtoDV -e 4 -c 0 -i 14 -a 0 -x {2.2 1.2 -1 ------- null}
+ -t 0.0202017884873346 -s 2 -d 1 -p rtProtoDV -e 4 -c 0 -i 15 -a 0 -x {2.2 3.2 -1 ------- null}
- -t 0.0202177884873346 -s 2 -d 1 -p rtProtoDV -e 4 -c 0 -i 15 -a 0 -x {2.2 3.2 -1 ------- null}
h -t 0.0202177884873346 -s 2 -d 1 -p rtProtoDV -e 4 -c 0 -i 15 -a 0 -x {2.2 3.2 -1 ------- null}
r -t 0.0271343302185826 -s 1 -d 0 -p rtProtoDV -e 4 -c 0 -i 6 -a 0 -x {1.2 0.2 -1 ------- null}
+ -t 0.0271343302185826 -s 0 -d 1 -p rtProtoDV -e 4 -c 0 -i 16 -a 0 -x {0.2 1.2 -1 ------- null}
- -t 0.0271343302185826 -s 0 -d 1 -p rtProtoDV -e 4 -c 0 -i 16 -a 0 -x {0.2 1.2 -1 ------- null}
h -t 0.0271343302185826 -s 0 -d 1 -p rtProtoDV -e 4 -c 0 -i 16 -a 0 -x {0.2 1.2 -1 ------- null}
r -t 0.0271343302185826 -s 1 -d 2 -p rtProtoDV -e 4 -c 0 -i 7 -a 0 -x {1.2 2.2 -1 ------- null}
+ -t 0.0271343302185826 -s 2 -d 1 -p rtProtoDV -e 4 -c 0 -i 17 -a 0 -x {2.2 1.2 -1 ------- null}
- -t 0.0271343302185826 -s 2 -d 1 -p rtProtoDV -e 4 -c 0 -i 17 -a 0 -x {2.2 1.2 -1 ------- null}
h -t 0.0271343302185826 -s 2 -d 1 -p rtProtoDV -e 4 -c 0 -i 17 -a 0 -x {2.2 1.2 -1 ------- null}
+ -t 0.0271343302185826 -s 2 -d 1 -p rtProtoDV -e 4 -c 0 -i 18 -a 0 -x {2.2 3.2 -1 ------- null}
r -t 0.0271343302185826 -s 3 -d 2 -p rtProtoDV -e 4 -c 0 -i 9 -a 0 -x {3.2 1.2 -1 ------- null}
+ -t 0.0271343302185826 -s 2 -d 1 -p rtProtoDV -e 4 -c 0 -i 9 -a 0 -x {3.2 1.2 -1 ------- null}
r -t 0.0271503302185826 -s 1 -d 2 -p rtProtoDV -e 4 -c 0 -i 8 -a 0 -x {1.2 3.2 -1 ------- null}
+ -t 0.0271503302185826 -s 2 -d 1 -p rtProtoDV -e 4 -c 0 -i 8 -a 0 -x {1.2 3.2 -1 ------- null}
r -t 0.0271503302185826 -s 3 -d 2 -p rtProtoDV -e 4 -c 0 -i 10 -a 0 -x {3.2 2.2 -1 ------- null}
+ -t 0.0271503302185826 -s 2 -d 1 -p rtProtoDV -e 4 -c 0 -i 19 -a 0 -x {2.2 1.2 -1 ------- null}
+ -t 0.0271503302185826 -s 2 -d 3 -p rtProtoDV -e 4 -c 0 -i 20 -a 0 -x {2.2 3.2 -1 ------- null}
- -t 0.0271503302185826 -s 2 -d 3 -p rtProtoDV -e 4 -c 0 -i 20 -a 0 -x {2.2 3.2 -1 ------- null}
h -t 0.0271503302185826 -s 2 -d 3 -p rtProtoDV -e 4 -c 0 -i 20 -a 0 -x {2.2 3.2 -1 ------- null}
- -t 0.0271503302185826 -s 2 -d 1 -p rtProtoDV -e 4 -c 0 -i 18 -a 0 -x {2.2 3.2 -1 ------- null}
h -t 0.0271503302185826 -s 2 -d 1 -p rtProtoDV -e 4 -c 0 -i 18 -a 0 -x {2.2 3.2 -1 ------- null}
- -t 0.0271663302185826 -s 2 -d 1 -p rtProtoDV -e 4 -c 0 -i 9 -a 0 -x {3.2 1.2 -1 ------- null}
h -t 0.0271663302185826 -s 2 -d 1 -p rtProtoDV -e 4 -c 0 -i 9 -a 0 -x {3.2 1.2 -1 ------- null}
- -t 0.0271823302185826 -s 2 -d 1 -p rtProtoDV -e 4 -c 0 -i 8 -a 0 -x {1.2 3.2 -1 ------- null}
h -t 0.0271823302185826 -s 2 -d 1 -p rtProtoDV -e 4 -c 0 -i 8 -a 0 -x {1.2 3.2 -1 ------- null}
- -t 0.0271983302185826 -s 2 -d 1 -p rtProtoDV -e 4 -c 0 -i 19 -a 0 -x {2.2 1.2 -1 ------- null}
h -t 0.0271983302185826 -s 2 -d 1 -p rtProtoDV -e 4 -c 0 -i 19 -a 0 -x {2.2 1.2 -1 ------- null}
r -t 0.0302057884873346 -s 3 -d 1 -p rtProtoDV -e 4 -c 0 -i 11 -a 0 -x {3.2 1.2 -1 ------- null}
+ -t 0.0302057884873346 -s 1 -d 0 -p rtProtoDV -e 4 -c 0 -i 21 -a 0 -x {1.2 0.2 -1 ------- null}
- -t 0.0302057884873346 -s 1 -d 0 -p rtProtoDV -e 4 -c 0 -i 21 -a 0 -x {1.2 0.2 -1 ------- null}
h -t 0.0302057884873346 -s 1 -d 0 -p rtProtoDV -e 4 -c 0 -i 21 -a 0 -x {1.2 0.2 -1 ------- null}
+ -t 0.0302057884873346 -s 1 -d 2 -p rtProtoDV -e 4 -c 0 -i 22 -a 0 -x {1.2 2.2 -1 ------- null}
- -t 0.0302057884873346 -s 1 -d 2 -p rtProtoDV -e 4 -c 0 -i 22 -a 0 -x {1.2 2.2 -1 ------- null}
h -t 0.0302057884873346 -s 1 -d 2 -p rtProtoDV -e 4 -c 0 -i 22 -a 0 -x {1.2 2.2 -1 ------- null}
+ -t 0.0302057884873346 -s 1 -d 3 -p rtProtoDV -e 4 -c 0 -i 23 -a 0 -x {1.2 3.2 -1 ------- null}
- -t 0.0302057884873346 -s 1 -d 3 -p rtProtoDV -e 4 -c 0 -i 23 -a 0 -x {1.2 3.2 -1 ------- null}
h -t 0.0302057884873346 -s 1 -d 3 -p rtProtoDV -e 4 -c 0 -i 23 -a 0 -x {1.2 3.2 -1 ------- null}
r -t 0.0302117884873346 -s 3 -d 2 -p rtProtoDV -e 4 -c 0 -i 12 -a 0 -x {3.2 2.2 -1 ------- null}
r -t 0.0302177884873346 -s 0 -d 1 -p rtProtoDV -e 4 -c 0 -i 13 -a 0 -x {0.2 1.2 -1 ------- null}
r -t 0.0302177884873346 -s 2 -d 1 -p rtProtoDV -e 4 -c 0 -i 14 -a 0 -x {2.2 1.2 -1 ------- null}
r -t 0.0302337884873346 -s 2 -d 1 -p rtProtoDV -e 4 -c 0 -i 15 -a 0 -x {2.2 3.2 -1 ------- null}
+ -t 0.0302337884873346 -s 1 -d 3 -p rtProtoDV -e 4 -c 0 -i 15 -a 0 -x {2.2 3.2 -1 ------- null}
- -t 0.0302337884873346 -s 1 -d 3 -p rtProtoDV -e 4 -c 0 -i 15 -a 0 -x {2.2 3.2 -1 ------- null}
h -t 0.0302337884873346 -s 1 -d 3 -p rtProtoDV -e 4 -c 0 -i 15 -a 0 -x {2.2 3.2 -1 ------- null}
r -t 0.0371503302185826 -s 0 -d 1 -p rtProtoDV -e 4 -c 0 -i 16 -a 0 -x {0.2 1.2 -1 ------- null}
r -t 0.0371503302185826 -s 2 -d 1 -p rtProtoDV -e 4 -c 0 -i 17 -a 0 -x {2.2 1.2 -1 ------- null}
r -t 0.0371663302185826 -s 2 -d 3 -p rtProtoDV -e 4 -c 0 -i 20 -a 0 -x {2.2 3.2 -1 ------- null}
r -t 0.0371663302185826 -s 2 -d 1 -p rtProtoDV -e 4 -c 0 -i 18 -a 0 -x {2.2 3.2 -1 ------- null}
+ -t 0.0371663302185826 -s 1 -d 3 -p rtProtoDV -e 4 -c 0 -i 18 -a 0 -x {2.2 3.2 -1 ------- null}
- -t 0.0371663302185826 -s 1 -d 3 -p rtProtoDV -e 4 -c 0 -i 18 -a 0 -x {2.2 3.2 -1 ------- null}
h -t 0.0371663302185826 -s 1 -d 3 -p rtProtoDV -e 4 -c 0 -i 18 -a 0 -x {2.2 3.2 -1 ------- null}
r -t 0.0371823302185826 -s 2 -d 1 -p rtProtoDV -e 4 -c 0 -i 9 -a 0 -x {3.2 1.2 -1 ------- null}
r -t 0.0371983302185826 -s 2 -d 1 -p rtProtoDV -e 4 -c 0 -i 8 -a 0 -x {1.2 3.2 -1 ------- null}
+ -t 0.0371983302185826 -s 1 -d 3 -p rtProtoDV -e 4 -c 0 -i 8 -a 0 -x {1.2 3.2 -1 ------- null}
- -t 0.0371983302185826 -s 1 -d 3 -p rtProtoDV -e 4 -c 0 -i 8 -a 0 -x {1.2 3.2 -1 ------- null}
h -t 0.0371983302185826 -s 1 -d 3 -p rtProtoDV -e 4 -c 0 -i 8 -a 0 -x {1.2 3.2 -1 ------- null}
r -t 0.0372143302185826 -s 2 -d 1 -p rtProtoDV -e 4 -c 0 -i 19 -a 0 -x {2.2 1.2 -1 ------- null}
r -t 0.0402157884873346 -s 1 -d 3 -p rtProtoDV -e 4 -c 0 -i 23 -a 0 -x {1.2 3.2 -1 ------- null}
r -t 0.0402217884873346 -s 1 -d 0 -p rtProtoDV -e 4 -c 0 -i 21 -a 0 -x {1.2 0.2 -1 ------- null}
+ -t 0.0402217884873346 -s 0 -d 1 -p rtProtoDV -e 4 -c 0 -i 24 -a 0 -x {0.2 1.2 -1 ------- null}
- -t 0.0402217884873346 -s 0 -d 1 -p rtProtoDV -e 4 -c 0 -i 24 -a 0 -x {0.2 1.2 -1 ------- null}
h -t 0.0402217884873346 -s 0 -d 1 -p rtProtoDV -e 4 -c 0 -i 24 -a 0 -x {0.2 1.2 -1 ------- null}
r -t 0.0402217884873346 -s 1 -d 2 -p rtProtoDV -e 4 -c 0 -i 22 -a 0 -x {1.2 2.2 -1 ------- null}
r -t 0.0402437884873346 -s 1 -d 3 -p rtProtoDV -e 4 -c 0 -i 15 -a 0 -x {2.2 3.2 -1 ------- null}
+ -t 0.04406133552271 -s 3 -d 1 -p rtProtoDV -e 4 -c 0 -i 25 -a 0 -x {3.2 1.2 -1 ------- null}
- -t 0.04406133552271 -s 3 -d 1 -p rtProtoDV -e 4 -c 0 -i 25 -a 0 -x {3.2 1.2 -1 ------- null}
h -t 0.04406133552271 -s 3 -d 1 -p rtProtoDV -e 4 -c 0 -i 25 -a 0 -x {3.2 1.2 -1 ------- null}
+ -t 0.04406133552271 -s 3 -d 2 -p rtProtoDV -e 4 -c 0 -i 26 -a 0 -x {3.2 2.2 -1 ------- null}
- -t 0.04406133552271 -s 3 -d 2 -p rtProtoDV -e 4 -c 0 -i 26 -a 0 -x {3.2 2.2 -1 ------- null}
h -t 0.04406133552271 -s 3 -d 2 -p rtProtoDV -e 4 -c 0 -i 26 -a 0 -x {3.2 2.2 -1 ------- null}
r -t 0.0471763302185826 -s 1 -d 3 -p rtProtoDV -e 4 -c 0 -i 18 -a 0 -x {2.2 3.2 -1 ------- null}
r -t 0.0472083302185826 -s 1 -d 3 -p rtProtoDV -e 4 -c 0 -i 8 -a 0 -x {1.2 3.2 -1 ------- null}
r -t 0.0502377884873346 -s 0 -d 1 -p rtProtoDV -e 4 -c 0 -i 24 -a 0 -x {0.2 1.2 -1 ------- null}
r -t 0.05407133552271 -s 3 -d 1 -p rtProtoDV -e 4 -c 0 -i 25 -a 0 -x {3.2 1.2 -1 ------- null}
r -t 0.05407733552271 -s 3 -d 2 -p rtProtoDV -e 4 -c 0 -i 26 -a 0 -x {3.2 2.2 -1 ------- null}
+ -t 0.277940357931862 -s 1 -d 0 -p rtProtoDV -e 4 -c 0 -i 27 -a 0 -x {1.2 0.2 -1 ------- null}
- -t 0.277940357931862 -s 1 -d 0 -p rtProtoDV -e 4 -c 0 -i 27 -a 0 -x {1.2 0.2 -1 ------- null}
h -t 0.277940357931862 -s 1 -d 0 -p rtProtoDV -e 4 -c 0 -i 27 -a 0 -x {1.2 0.2 -1 ------- null}
+ -t 0.277940357931862 -s 1 -d 2 -p rtProtoDV -e 4 -c 0 -i 28 -a 0 -x {1.2 2.2 -1 ------- null}
- -t 0.277940357931862 -s 1 -d 2 -p rtProtoDV -e 4 -c 0 -i 28 -a 0 -x {1.2 2.2 -1 ------- null}
h -t 0.277940357931862 -s 1 -d 2 -p rtProtoDV -e 4 -c 0 -i 28 -a 0 -x {1.2 2.2 -1 ------- null}
+ -t 0.277940357931862 -s 1 -d 3 -p rtProtoDV -e 4 -c 0 -i 29 -a 0 -x {1.2 3.2 -1 ------- null}
- -t 0.277940357931862 -s 1 -d 3 -p rtProtoDV -e 4 -c 0 -i 29 -a 0 -x {1.2 3.2 -1 ------- null}
h -t 0.277940357931862 -s 1 -d 3 -p rtProtoDV -e 4 -c 0 -i 29 -a 0 -x {1.2 3.2 -1 ------- null}
r -t 0.287950357931862 -s 1 -d 3 -p rtProtoDV -e 4 -c 0 -i 29 -a 0 -x {1.2 3.2 -1 ------- null}
r -t 0.287956357931862 -s 1 -d 0 -p rtProtoDV -e 4 -c 0 -i 27 -a 0 -x {1.2 0.2 -1 ------- null}
r -t 0.287956357931862 -s 1 -d 2 -p rtProtoDV -e 4 -c 0 -i 28 -a 0 -x {1.2 2.2 -1 ------- null}
+ -t 0.5 -s 2 -d 1 -p cbr -e 500 -c 1 -i 30 -a 1 -x {2.0 0.0 0 ------- null}
- -t 0.5 -s 2 -d 1 -p cbr -e 500 -c 1 -i 30 -a 1 -x {2.0 0.0 0 ------- null}
h -t 0.5 -s 2 -d 1 -p cbr -e 500 -c 1 -i 30 -a 1 -x {2.0 0.0 -1 ------- null}
+ -t 0.5 -s 3 -d 1 -p cbr -e 500 -c 2 -i 31 -a 2 -x {3.0 1.0 0 ------- null}
- -t 0.5 -s 3 -d 1 -p cbr -e 500 -c 2 -i 31 -a 2 -x {3.0 1.0 0 ------- null}
h -t 0.5 -s 3 -d 1 -p cbr -e 500 -c 2 -i 31 -a 2 -x {3.0 1.0 -1 ------- null}
+ -t 0.5025 -s 2 -d 1 -p cbr -e 500 -c 1 -i 32 -a 1 -x {2.0 0.0 1 ------- null}
- -t 0.5025 -s 2 -d 1 -p cbr -e 500 -c 1 -i 32 -a 1 -x {2.0 0.0 1 ------- null}
h -t 0.5025 -s 2 -d 1 -p cbr -e 500 -c 1 -i 32 -a 1 -x {2.0 0.0 -1 ------- null}
+ -t 0.5025 -s 3 -d 1 -p cbr -e 500 -c 2 -i 33 -a 2 -x {3.0 1.0 1 ------- null}
- -t 0.5025 -s 3 -d 1 -p cbr -e 500 -c 2 -i 33 -a 2 -x {3.0 1.0 1 ------- null}
h -t 0.5025 -s 3 -d 1 -p cbr -e 500 -c 2 -i 33 -a 2 -x {3.0 1.0 -1 ------- null}
+ -t 0.505 -s 2 -d 1 -p cbr -e 500 -c 1 -i 34 -a 1 -x {2.0 0.0 2 ------- null}
- -t 0.505 -s 2 -d 1 -p cbr -e 500 -c 1 -i 34 -a 1 -x {2.0 0.0 2 ------- null}
h -t 0.505 -s 2 -d 1 -p cbr -e 500 -c 1 -i 34 -a 1 -x {2.0 0.0 -1 ------- null}
+ -t 0.505 -s 3 -d 1 -p cbr -e 500 -c 2 -i 35 -a 2 -x {3.0 1.0 2 ------- null}
- -t 0.505 -s 3 -d 1 -p cbr -e 500 -c 2 -i 35 -a 2 -x {3.0 1.0 2 ------- null}
h -t 0.505 -s 3 -d 1 -p cbr -e 500 -c 2 -i 35 -a 2 -x {3.0 1.0 -1 ------- null}
+ -t 0.5075 -s 2 -d 1 -p cbr -e 500 -c 1 -i 36 -a 1 -x {2.0 0.0 3 ------- null}
- -t 0.5075 -s 2 -d 1 -p cbr -e 500 -c 1 -i 36 -a 1 -x {2.0 0.0 3 ------- null}
h -t 0.5075 -s 2 -d 1 -p cbr -e 500 -c 1 -i 36 -a 1 -x {2.0 0.0 -1 ------- null}
+ -t 0.5075 -s 3 -d 1 -p cbr -e 500 -c 2 -i 37 -a 2 -x {3.0 1.0 3 ------- null}
- -t 0.5075 -s 3 -d 1 -p cbr -e 500 -c 2 -i 37 -a 2 -x {3.0 1.0 3 ------- null}
h -t 0.5075 -s 3 -d 1 -p cbr -e 500 -c 2 -i 37 -a 2 -x {3.0 1.0 -1 ------- null}
+ -t 0.51 -s 2 -d 1 -p cbr -e 500 -c 1 -i 38 -a 1 -x {2.0 0.0 4 ------- null}
- -t 0.51 -s 2 -d 1 -p cbr -e 500 -c 1 -i 38 -a 1 -x {2.0 0.0 4 ------- null}
h -t 0.51 -s 2 -d 1 -p cbr -e 500 -c 1 -i 38 -a 1 -x {2.0 0.0 -1 ------- null}
+ -t 0.51 -s 3 -d 1 -p cbr -e 500 -c 2 -i 39 -a 2 -x {3.0 1.0 4 ------- null}
- -t 0.51 -s 3 -d 1 -p cbr -e 500 -c 2 -i 39 -a 2 -x {3.0 1.0 4 ------- null}
h -t 0.51 -s 3 -d 1 -p cbr -e 500 -c 2 -i 39 -a 2 -x {3.0 1.0 -1 ------- null}
r -t 0.51125 -s 3 -d 1 -p cbr -e 500 -c 2 -i 31 -a 2 -x {3.0 1.0 0 ------- null}
r -t 0.512 -s 2 -d 1 -p cbr -e 500 -c 1 -i 30 -a 1 -x {2.0 0.0 0 ------- null}
+ -t 0.512 -s 1 -d 0 -p cbr -e 500 -c 1 -i 30 -a 1 -x {2.0 0.0 0 ------- null}
- -t 0.512 -s 1 -d 0 -p cbr -e 500 -c 1 -i 30 -a 1 -x {2.0 0.0 0 ------- null}
h -t 0.512 -s 1 -d 0 -p cbr -e 500 -c 1 -i 30 -a 1 -x {2.0 0.0 -1 ------- null}
+ -t 0.5125 -s 2 -d 1 -p cbr -e 500 -c 1 -i 40 -a 1 -x {2.0 0.0 5 ------- null}
- -t 0.5125 -s 2 -d 1 -p cbr -e 500 -c 1 -i 40 -a 1 -x {2.0 0.0 5 ------- null}
h -t 0.5125 -s 2 -d 1 -p cbr -e 500 -c 1 -i 40 -a 1 -x {2.0 0.0 -1 ------- null}
+ -t 0.5125 -s 3 -d 1 -p cbr -e 500 -c 2 -i 41 -a 2 -x {3.0 1.0 5 ------- null}
- -t 0.5125 -s 3 -d 1 -p cbr -e 500 -c 2 -i 41 -a 2 -x {3.0 1.0 5 ------- null}
h -t 0.5125 -s 3 -d 1 -p cbr -e 500 -c 2 -i 41 -a 2 -x {3.0 1.0 -1 ------- null}
r -t 0.51375 -s 3 -d 1 -p cbr -e 500 -c 2 -i 33 -a 2 -x {3.0 1.0 1 ------- null}
r -t 0.5145 -s 2 -d 1 -p cbr -e 500 -c 1 -i 32 -a 1 -x {2.0 0.0 1 ------- null}
+ -t 0.5145 -s 1 -d 0 -p cbr -e 500 -c 1 -i 32 -a 1 -x {2.0 0.0 1 ------- null}
- -t 0.5145 -s 1 -d 0 -p cbr -e 500 -c 1 -i 32 -a 1 -x {2.0 0.0 1 ------- null}
h -t 0.5145 -s 1 -d 0 -p cbr -e 500 -c 1 -i 32 -a 1 -x {2.0 0.0 -1 ------- null}
+ -t 0.515 -s 2 -d 1 -p cbr -e 500 -c 1 -i 42 -a 1 -x {2.0 0.0 6 ------- null}
- -t 0.515 -s 2 -d 1 -p cbr -e 500 -c 1 -i 42 -a 1 -x {2.0 0.0 6 ------- null}
h -t 0.515 -s 2 -d 1 -p cbr -e 500 -c 1 -i 42 -a 1 -x {2.0 0.0 -1 ------- null}
+ -t 0.515 -s 3 -d 1 -p cbr -e 500 -c 2 -i 43 -a 2 -x {3.0 1.0 6 ------- null}
- -t 0.515 -s 3 -d 1 -p cbr -e 500 -c 2 -i 43 -a 2 -x {3.0 1.0 6 ------- null}
h -t 0.515 -s 3 -d 1 -p cbr -e 500 -c 2 -i 43 -a 2 -x {3.0 1.0 -1 ------- null}
r -t 0.51625 -s 3 -d 1 -p cbr -e 500 -c 2 -i 35 -a 2 -x {3.0 1.0 2 ------- null}
r -t 0.517 -s 2 -d 1 -p cbr -e 500 -c 1 -i 34 -a 1 -x {2.0 0.0 2 ------- null}
+ -t 0.517 -s 1 -d 0 -p cbr -e 500 -c 1 -i 34 -a 1 -x {2.0 0.0 2 ------- null}
- -t 0.517 -s 1 -d 0 -p cbr -e 500 -c 1 -i 34 -a 1 -x {2.0 0.0 2 ------- null}
h -t 0.517 -s 1 -d 0 -p cbr -e 500 -c 1 -i 34 -a 1 -x {2.0 0.0 -1 ------- null}
+ -t 0.5175 -s 2 -d 1 -p cbr -e 500 -c 1 -i 44 -a 1 -x {2.0 0.0 7 ------- null}
- -t 0.5175 -s 2 -d 1 -p cbr -e 500 -c 1 -i 44 -a 1 -x {2.0 0.0 7 ------- null}
h -t 0.5175 -s 2 -d 1 -p cbr -e 500 -c 1 -i 44 -a 1 -x {2.0 0.0 -1 ------- null}
+ -t 0.5175 -s 3 -d 1 -p cbr -e 500 -c 2 -i 45 -a 2 -x {3.0 1.0 7 ------- null}
- -t 0.5175 -s 3 -d 1 -p cbr -e 500 -c 2 -i 45 -a 2 -x {3.0 1.0 7 ------- null}
h -t 0.5175 -s 3 -d 1 -p cbr -e 500 -c 2 -i 45 -a 2 -x {3.0 1.0 -1 ------- null}
r -t 0.51875 -s 3 -d 1 -p cbr -e 500 -c 2 -i 37 -a 2 -x {3.0 1.0 3 ------- null}
r -t 0.5195 -s 2 -d 1 -p cbr -e 500 -c 1 -i 36 -a 1 -x {2.0 0.0 3 ------- null}
+ -t 0.5195 -s 1 -d 0 -p cbr -e 500 -c 1 -i 36 -a 1 -x {2.0 0.0 3 ------- null}
- -t 0.5195 -s 1 -d 0 -p cbr -e 500 -c 1 -i 36 -a 1 -x {2.0 0.0 3 ------- null}
h -t 0.5195 -s 1 -d 0 -p cbr -e 500 -c 1 -i 36 -a 1 -x {2.0 0.0 -1 ------- null}
+ -t 0.52 -s 2 -d 1 -p cbr -e 500 -c 1 -i 46 -a 1 -x {2.0 0.0 8 ------- null}
- -t 0.52 -s 2 -d 1 -p cbr -e 500 -c 1 -i 46 -a 1 -x {2.0 0.0 8 ------- null}
h -t 0.52 -s 2 -d 1 -p cbr -e 500 -c 1 -i 46 -a 1 -x {2.0 0.0 -1 ------- null}
+ -t 0.52 -s 3 -d 1 -p cbr -e 500 -c 2 -i 47 -a 2 -x {3.0 1.0 8 ------- null}
- -t 0.52 -s 3 -d 1 -p cbr -e 500 -c 2 -i 47 -a 2 -x {3.0 1.0 8 ------- null}
h -t 0.52 -s 3 -d 1 -p cbr -e 500 -c 2 -i 47 -a 2 -x {3.0 1.0 -1 ------- null}
r -t 0.52125 -s 3 -d 1 -p cbr -e 500 -c 2 -i 39 -a 2 -x {3.0 1.0 4 ------- null}
r -t 0.522 -s 2 -d 1 -p cbr -e 500 -c 1 -i 38 -a 1 -x {2.0 0.0 4 ------- null}
+ -t 0.522 -s 1 -d 0 -p cbr -e 500 -c 1 -i 38 -a 1 -x {2.0 0.0 4 ------- null}
- -t 0.522 -s 1 -d 0 -p cbr -e 500 -c 1 -i 38 -a 1 -x {2.0 0.0 4 ------- null}
h -t 0.522 -s 1 -d 0 -p cbr -e 500 -c 1 -i 38 -a 1 -x {2.0 0.0 -1 ------- null}
+ -t 0.5225 -s 2 -d 1 -p cbr -e 500 -c 1 -i 48 -a 1 -x {2.0 0.0 9 ------- null}
- -t 0.5225 -s 2 -d 1 -p cbr -e 500 -c 1 -i 48 -a 1 -x {2.0 0.0 9 ------- null}
h -t 0.5225 -s 2 -d 1 -p cbr -e 500 -c 1 -i 48 -a 1 -x {2.0 0.0 -1 ------- null}
+ -t 0.5225 -s 3 -d 1 -p cbr -e 500 -c 2 -i 49 -a 2 -x {3.0 1.0 9 ------- null}
- -t 0.5225 -s 3 -d 1 -p cbr -e 500 -c 2 -i 49 -a 2 -x {3.0 1.0 9 ------- null}
h -t 0.5225 -s 3 -d 1 -p cbr -e 500 -c 2 -i 49 -a 2 -x {3.0 1.0 -1 ------- null}
r -t 0.52375 -s 3 -d 1 -p cbr -e 500 -c 2 -i 41 -a 2 -x {3.0 1.0 5 ------- null}
r -t 0.524 -s 1 -d 0 -p cbr -e 500 -c 1 -i 30 -a 1 -x {2.0 0.0 0 ------- null}
r -t 0.5245 -s 2 -d 1 -p cbr -e 500 -c 1 -i 40 -a 1 -x {2.0 0.0 5 ------- null}
+ -t 0.5245 -s 1 -d 0 -p cbr -e 500 -c 1 -i 40 -a 1 -x {2.0 0.0 5 ------- null}
- -t 0.5245 -s 1 -d 0 -p cbr -e 500 -c 1 -i 40 -a 1 -x {2.0 0.0 5 ------- null}
h -t 0.5245 -s 1 -d 0 -p cbr -e 500 -c 1 -i 40 -a 1 -x {2.0 0.0 -1 ------- null}
+ -t 0.524999999999999 -s 2 -d 1 -p cbr -e 500 -c 1 -i 50 -a 1 -x {2.0 0.0 10 ------- null}
- -t 0.524999999999999 -s 2 -d 1 -p cbr -e 500 -c 1 -i 50 -a 1 -x {2.0 0.0 10 ------- null}
h -t 0.524999999999999 -s 2 -d 1 -p cbr -e 500 -c 1 -i 50 -a 1 -x {2.0 0.0 -1 ------- null}
+ -t 0.524999999999999 -s 3 -d 1 -p cbr -e 500 -c 2 -i 51 -a 2 -x {3.0 1.0 10 ------- null}
- -t 0.524999999999999 -s 3 -d 1 -p cbr -e 500 -c 2 -i 51 -a 2 -x {3.0 1.0 10 ------- null}
h -t 0.524999999999999 -s 3 -d 1 -p cbr -e 500 -c 2 -i 51 -a 2 -x {3.0 1.0 -1 ------- null}
r -t 0.52625 -s 3 -d 1 -p cbr -e 500 -c 2 -i 43 -a 2 -x {3.0 1.0 6 ------- null}
r -t 0.5265 -s 1 -d 0 -p cbr -e 500 -c 1 -i 32 -a 1 -x {2.0 0.0 1 ------- null}
r -t 0.527 -s 2 -d 1 -p cbr -e 500 -c 1 -i 42 -a 1 -x {2.0 0.0 6 ------- null}
+ -t 0.527 -s 1 -d 0 -p cbr -e 500 -c 1 -i 42 -a 1 -x {2.0 0.0 6 ------- null}
- -t 0.527 -s 1 -d 0 -p cbr -e 500 -c 1 -i 42 -a 1 -x {2.0 0.0 6 ------- null}
h -t 0.527 -s 1 -d 0 -p cbr -e 500 -c 1 -i 42 -a 1 -x {2.0 0.0 -1 ------- null}
+ -t 0.527499999999999 -s 2 -d 1 -p cbr -e 500 -c 1 -i 52 -a 1 -x {2.0 0.0 11 ------- null}
- -t 0.527499999999999 -s 2 -d 1 -p cbr -e 500 -c 1 -i 52 -a 1 -x {2.0 0.0 11 ------- null}
h -t 0.527499999999999 -s 2 -d 1 -p cbr -e 500 -c 1 -i 52 -a 1 -x {2.0 0.0 -1 ------- null}
+ -t 0.527499999999999 -s 3 -d 1 -p cbr -e 500 -c 2 -i 53 -a 2 -x {3.0 1.0 11 ------- null}
- -t 0.527499999999999 -s 3 -d 1 -p cbr -e 500 -c 2 -i 53 -a 2 -x {3.0 1.0 11 ------- null}
h -t 0.527499999999999 -s 3 -d 1 -p cbr -e 500 -c 2 -i 53 -a 2 -x {3.0 1.0 -1 ------- null}
r -t 0.52875 -s 3 -d 1 -p cbr -e 500 -c 2 -i 45 -a 2 -x {3.0 1.0 7 ------- null}
r -t 0.529 -s 1 -d 0 -p cbr -e 500 -c 1 -i 34 -a 1 -x {2.0 0.0 2 ------- null}
r -t 0.5295 -s 2 -d 1 -p cbr -e 500 -c 1 -i 44 -a 1 -x {2.0 0.0 7 ------- null}
+ -t 0.5295 -s 1 -d 0 -p cbr -e 500 -c 1 -i 44 -a 1 -x {2.0 0.0 7 ------- null}
- -t 0.5295 -s 1 -d 0 -p cbr -e 500 -c 1 -i 44 -a 1 -x {2.0 0.0 7 ------- null}
h -t 0.5295 -s 1 -d 0 -p cbr -e 500 -c 1 -i 44 -a 1 -x {2.0 0.0 -1 ------- null}
+ -t 0.529999999999999 -s 2 -d 1 -p cbr -e 500 -c 1 -i 54 -a 1 -x {2.0 0.0 12 ------- null}
- -t 0.529999999999999 -s 2 -d 1 -p cbr -e 500 -c 1 -i 54 -a 1 -x {2.0 0.0 12 ------- null}
h -t 0.529999999999999 -s 2 -d 1 -p cbr -e 500 -c 1 -i 54 -a 1 -x {2.0 0.0 -1 ------- null}
+ -t 0.529999999999999 -s 3 -d 1 -p cbr -e 500 -c 2 -i 55 -a 2 -x {3.0 1.0 12 ------- null}
- -t 0.529999999999999 -s 3 -d 1 -p cbr -e 500 -c 2 -i 55 -a 2 -x {3.0 1.0 12 ------- null}
h -t 0.529999999999999 -s 3 -d 1 -p cbr -e 500 -c 2 -i 55 -a 2 -x {3.0 1.0 -1 ------- null}
r -t 0.53125 -s 3 -d 1 -p cbr -e 500 -c 2 -i 47 -a 2 -x {3.0 1.0 8 ------- null}
r -t 0.5315 -s 1 -d 0 -p cbr -e 500 -c 1 -i 36 -a 1 -x {2.0 0.0 3 ------- null}
r -t 0.532 -s 2 -d 1 -p cbr -e 500 -c 1 -i 46 -a 1 -x {2.0 0.0 8 ------- null}
+ -t 0.532 -s 1 -d 0 -p cbr -e 500 -c 1 -i 46 -a 1 -x {2.0 0.0 8 ------- null}
- -t 0.532 -s 1 -d 0 -p cbr -e 500 -c 1 -i 46 -a 1 -x {2.0 0.0 8 ------- null}
h -t 0.532 -s 1 -d 0 -p cbr -e 500 -c 1 -i 46 -a 1 -x {2.0 0.0 -1 ------- null}
+ -t 0.532499999999999 -s 2 -d 1 -p cbr -e 500 -c 1 -i 56 -a 1 -x {2.0 0.0 13 ------- null}
- -t 0.532499999999999 -s 2 -d 1 -p cbr -e 500 -c 1 -i 56 -a 1 -x {2.0 0.0 13 ------- null}
h -t 0.532499999999999 -s 2 -d 1 -p cbr -e 500 -c 1 -i 56 -a 1 -x {2.0 0.0 -1 ------- null}
+ -t 0.532499999999999 -s 3 -d 1 -p cbr -e 500 -c 2 -i 57 -a 2 -x {3.0 1.0 13 ------- null}
- -t 0.532499999999999 -s 3 -d 1 -p cbr -e 500 -c 2 -i 57 -a 2 -x {3.0 1.0 13 ------- null}
h -t 0.532499999999999 -s 3 -d 1 -p cbr -e 500 -c 2 -i 57 -a 2 -x {3.0 1.0 -1 ------- null}
r -t 0.53375 -s 3 -d 1 -p cbr -e 500 -c 2 -i 49 -a 2 -x {3.0 1.0 9 ------- null}
r -t 0.534 -s 1 -d 0 -p cbr -e 500 -c 1 -i 38 -a 1 -x {2.0 0.0 4 ------- null}
r -t 0.5345 -s 2 -d 1 -p cbr -e 500 -c 1 -i 48 -a 1 -x {2.0 0.0 9 ------- null}
+ -t 0.5345 -s 1 -d 0 -p cbr -e 500 -c 1 -i 48 -a 1 -x {2.0 0.0 9 ------- null}
- -t 0.5345 -s 1 -d 0 -p cbr -e 500 -c 1 -i 48 -a 1 -x {2.0 0.0 9 ------- null}
h -t 0.5345 -s 1 -d 0 -p cbr -e 500 -c 1 -i 48 -a 1 -x {2.0 0.0 -1 ------- null}
+ -t 0.534999999999999 -s 2 -d 1 -p cbr -e 500 -c 1 -i 58 -a 1 -x {2.0 0.0 14 ------- null}
- -t 0.534999999999999 -s 2 -d 1 -p cbr -e 500 -c 1 -i 58 -a 1 -x {2.0 0.0 14 ------- null}
h -t 0.534999999999999 -s 2 -d 1 -p cbr -e 500 -c 1 -i 58 -a 1 -x {2.0 0.0 -1 ------- null}
+ -t 0.534999999999999 -s 3 -d 1 -p cbr -e 500 -c 2 -i 59 -a 2 -x {3.0 1.0 14 ------- null}
- -t 0.534999999999999 -s 3 -d 1 -p cbr -e 500 -c 2 -i 59 -a 2 -x {3.0 1.0 14 ------- null}
h -t 0.534999999999999 -s 3 -d 1 -p cbr -e 500 -c 2 -i 59 -a 2 -x {3.0 1.0 -1 ------- null}
r -t 0.536249999999999 -s 3 -d 1 -p cbr -e 500 -c 2 -i 51 -a 2 -x {3.0 1.0 10 ------- null}
r -t 0.5365 -s 1 -d 0 -p cbr -e 500 -c 1 -i 40 -a 1 -x {2.0 0.0 5 ------- null}
r -t 0.536999999999999 -s 2 -d 1 -p cbr -e 500 -c 1 -i 50 -a 1 -x {2.0 0.0 10 ------- null}
+ -t 0.536999999999999 -s 1 -d 0 -p cbr -e 500 -c 1 -i 50 -a 1 -x {2.0 0.0 10 ------- null}
- -t 0.536999999999999 -s 1 -d 0 -p cbr -e 500 -c 1 -i 50 -a 1 -x {2.0 0.0 10 ------- null}
h -t 0.536999999999999 -s 1 -d 0 -p cbr -e 500 -c 1 -i 50 -a 1 -x {2.0 0.0 -1 ------- null}
+ -t 0.537499999999999 -s 2 -d 1 -p cbr -e 500 -c 1 -i 60 -a 1 -x {2.0 0.0 15 ------- null}
- -t 0.537499999999999 -s 2 -d 1 -p cbr -e 500 -c 1 -i 60 -a 1 -x {2.0 0.0 15 ------- null}
h -t 0.537499999999999 -s 2 -d 1 -p cbr -e 500 -c 1 -i 60 -a 1 -x {2.0 0.0 -1 ------- null}
+ -t 0.537499999999999 -s 3 -d 1 -p cbr -e 500 -c 2 -i 61 -a 2 -x {3.0 1.0 15 ------- null}
- -t 0.537499999999999 -s 3 -d 1 -p cbr -e 500 -c 2 -i 61 -a 2 -x {3.0 1.0 15 ------- null}
h -t 0.537499999999999 -s 3 -d 1 -p cbr -e 500 -c 2 -i 61 -a 2 -x {3.0 1.0 -1 ------- null}
r -t 0.538749999999999 -s 3 -d 1 -p cbr -e 500 -c 2 -i 53 -a 2 -x {3.0 1.0 11 ------- null}
r -t 0.539 -s 1 -d 0 -p cbr -e 500 -c 1 -i 42 -a 1 -x {2.0 0.0 6 ------- null}
r -t 0.539499999999999 -s 2 -d 1 -p cbr -e 500 -c 1 -i 52 -a 1 -x {2.0 0.0 11 ------- null}
+ -t 0.539499999999999 -s 1 -d 0 -p cbr -e 500 -c 1 -i 52 -a 1 -x {2.0 0.0 11 ------- null}
- -t 0.539499999999999 -s 1 -d 0 -p cbr -e 500 -c 1 -i 52 -a 1 -x {2.0 0.0 11 ------- null}
h -t 0.539499999999999 -s 1 -d 0 -p cbr -e 500 -c 1 -i 52 -a 1 -x {2.0 0.0 -1 ------- null}
+ -t 0.539999999999999 -s 2 -d 1 -p cbr -e 500 -c 1 -i 62 -a 1 -x {2.0 0.0 16 ------- null}
- -t 0.539999999999999 -s 2 -d 1 -p cbr -e 500 -c 1 -i 62 -a 1 -x {2.0 0.0 16 ------- null}
h -t 0.539999999999999 -s 2 -d 1 -p cbr -e 500 -c 1 -i 62 -a 1 -x {2.0 0.0 -1 ------- null}
+ -t 0.539999999999999 -s 3 -d 1 -p cbr -e 500 -c 2 -i 63 -a 2 -x {3.0 1.0 16 ------- null}
- -t 0.539999999999999 -s 3 -d 1 -p cbr -e 500 -c 2 -i 63 -a 2 -x {3.0 1.0 16 ------- null}
h -t 0.539999999999999 -s 3 -d 1 -p cbr -e 500 -c 2 -i 63 -a 2 -x {3.0 1.0 -1 ------- null}
r -t 0.541249999999999 -s 3 -d 1 -p cbr -e 500 -c 2 -i 55 -a 2 -x {3.0 1.0 12 ------- null}
r -t 0.5415 -s 1 -d 0 -p cbr -e 500 -c 1 -i 44 -a 1 -x {2.0 0.0 7 ------- null}
r -t 0.541999999999999 -s 2 -d 1 -p cbr -e 500 -c 1 -i 54 -a 1 -x {2.0 0.0 12 ------- null}
+ -t 0.541999999999999 -s 1 -d 0 -p cbr -e 500 -c 1 -i 54 -a 1 -x {2.0 0.0 12 ------- null}
- -t 0.541999999999999 -s 1 -d 0 -p cbr -e 500 -c 1 -i 54 -a 1 -x {2.0 0.0 12 ------- null}
h -t 0.541999999999999 -s 1 -d 0 -p cbr -e 500 -c 1 -i 54 -a 1 -x {2.0 0.0 -1 ------- null}
+ -t 0.542499999999999 -s 2 -d 1 -p cbr -e 500 -c 1 -i 64 -a 1 -x {2.0 0.0 17 ------- null}
- -t 0.542499999999999 -s 2 -d 1 -p cbr -e 500 -c 1 -i 64 -a 1 -x {2.0 0.0 17 ------- null}
h -t 0.542499999999999 -s 2 -d 1 -p cbr -e 500 -c 1 -i 64 -a 1 -x {2.0 0.0 -1 ------- null}
+ -t 0.542499999999999 -s 3 -d 1 -p cbr -e 500 -c 2 -i 65 -a 2 -x {3.0 1.0 17 ------- null}
- -t 0.542499999999999 -s 3 -d 1 -p cbr -e 500 -c 2 -i 65 -a 2 -x {3.0 1.0 17 ------- null}
h -t 0.542499999999999 -s 3 -d 1 -p cbr -e 500 -c 2 -i 65 -a 2 -x {3.0 1.0 -1 ------- null}
r -t 0.543749999999999 -s 3 -d 1 -p cbr -e 500 -c 2 -i 57 -a 2 -x {3.0 1.0 13 ------- null}
r -t 0.544 -s 1 -d 0 -p cbr -e 500 -c 1 -i 46 -a 1 -x {2.0 0.0 8 ------- null}
r -t 0.544499999999999 -s 2 -d 1 -p cbr -e 500 -c 1 -i 56 -a 1 -x {2.0 0.0 13 ------- null}
+ -t 0.544499999999999 -s 1 -d 0 -p cbr -e 500 -c 1 -i 56 -a 1 -x {2.0 0.0 13 ------- null}